/*--------------------------------*- C++ -*----------------------------------*\
  =========                 |
  \\      /  F ield         | OpenFOAM: The Open Source CFD Toolbox
   \\    /   O peration     | Website:  https://openfoam.org
    \\  /    A nd           | Version:  10
     \\/     M anipulation  |
\*---------------------------------------------------------------------------*/
FoamFile
{
    format      ascii;
    class       volScalarField;
    location    "1.8";
    object      gradTx;
}
// * * * * * * * * * * * * * * * * * * * * * * * * * * * * * * * * * * * * * //

dimensions      [0 -1 0 1 0 0 0];

internalField   nonuniform List<scalar> 
3000
(
-496.426
-3.56129
-0.0128403
-3.09681e-05
-5.62737e-08
-1.11022e-10
1.00364e-10
0
0
9.59233e-11
-496.426
-3.56129
-0.0128403
-3.09682e-05
-5.62728e-08
-1.07025e-10
1.9984e-11
-1.24345e-11
-3.10862e-12
1.82077e-11
-496.426
-3.56129
-0.0128403
-3.09682e-05
-5.62843e-08
-1.13687e-10
0
1.2168e-10
-8.88178e-13
-9.76996e-11
-496.426
-3.56129
-0.0128403
-3.09681e-05
-5.61591e-08
-1.5854e-10
8.88178e-13
-8.88178e-13
-1.02585e-10
6.66134e-12
-496.426
-3.56129
-0.0128403
-3.09681e-05
-5.6275e-08
-9.50351e-11
1.22569e-10
1.04361e-10
-1.1946e-10
-9.99201e-11
-496.426
-3.56129
-0.0128403
-3.09682e-05
-5.62514e-08
-1.12799e-10
-2.04281e-11
1.2168e-10
2.04281e-11
-1.18572e-10
-496.426
-3.56129
-0.0128403
-3.09681e-05
-5.61493e-08
-1.64313e-11
2.22045e-12
0
-1.19904e-10
1.42109e-11
-496.426
-3.56129
-0.0128403
-3.09682e-05
-5.62825e-08
-1.26121e-10
9.99201e-11
1.46549e-11
-1.14575e-10
-5.32907e-12
-496.426
-3.56129
-0.0128403
-3.09681e-05
-5.61791e-08
-1.57208e-10
-9.81437e-11
9.28146e-11
-2.30926e-11
-9.41469e-11
-496.426
-3.56129
-0.0128403
-3.09681e-05
-5.62115e-08
-1.11022e-11
-6.21725e-12
-1.01696e-10
-9.32587e-11
1.03473e-10
-496.426
-3.56129
-0.0128403
-3.09681e-05
-5.63052e-08
-1.10578e-10
1.21236e-10
3.9968e-12
-1.04805e-10
1.77636e-12
-496.426
-3.56129
-0.0128403
-3.09682e-05
-5.63025e-08
-9.32587e-11
4.75175e-11
-1.86517e-11
1.15463e-11
-6.21725e-12
-496.426
-3.56129
-0.0128403
-3.09682e-05
-5.6263e-08
-1.04805e-10
7.54952e-12
7.37188e-11
3.55271e-12
-4.13003e-11
-496.426
-3.56129
-0.0128403
-3.09681e-05
-5.62501e-08
-1.40332e-10
-1.55431e-11
0
-2.4869e-11
-3.19744e-11
-496.426
-3.56129
-0.0128403
-3.09682e-05
-5.63163e-08
-7.10543e-11
6.9722e-11
0
-5.55112e-11
-2.66454e-12
-496.426
-3.56129
-0.0128403
-3.09682e-05
-5.62888e-08
-1.04805e-10
7.54952e-12
7.32747e-11
3.9968e-12
-1.68754e-11
-496.426
-3.56129
-0.0128403
-3.09681e-05
-5.63225e-08
-9.59233e-11
6.9722e-11
4.44089e-13
-5.59552e-11
-3.73035e-11
-496.426
-3.56129
-0.0128403
-3.09682e-05
-5.62608e-08
-1.52323e-10
7.99361e-12
0
-4.79616e-11
4.84057e-11
-496.426
-3.56129
-0.0128403
-3.09682e-05
-5.62488e-08
-1.0969e-10
-1.19904e-11
-4.52971e-11
-6.17284e-11
3.33067e-11
-496.426
-3.56129
-0.0128403
-3.09682e-05
-5.62475e-08
-1.15463e-10
9.99201e-11
0
-1.0747e-10
1.64313e-11
-496.426
-3.56129
-0.0128403
-3.09682e-05
-5.62874e-08
-1.13687e-10
0
1.2168e-10
-8.88178e-13
-9.76996e-11
-496.426
-3.56129
-0.0128403
-3.09682e-05
-5.62888e-08
-5.32907e-11
1.64313e-11
2.22045e-11
-5.77316e-12
1.77636e-12
-496.426
-3.56129
-0.0128403
-3.09682e-05
-5.62226e-08
-1.5099e-10
-1.33227e-12
-1.37668e-11
-7.28306e-11
7.23865e-11
-496.426
-3.56129
-0.0128403
-3.09682e-05
-5.63167e-08
-9.28146e-11
6.12843e-11
-3.24185e-11
-2.88658e-11
7.99361e-12
-496.426
-3.56129
-0.0128403
-3.09682e-05
-5.62963e-08
-1.05249e-10
1.37668e-11
4.44089e-13
-1.42109e-11
6.4837e-11
-496.426
-3.56129
-0.0128403
-3.09682e-05
-5.62874e-08
-1.63869e-10
7.23865e-11
-1.37668e-11
-1.86517e-11
7.4607e-11
-496.426
-3.56129
-0.0128403
-3.09682e-05
-5.62959e-08
-9.85878e-11
3.19744e-11
0
-1.82077e-11
1.82077e-11
-496.426
-3.56129
-0.0128403
-3.09682e-05
-5.62608e-08
-1.57652e-10
-1.33227e-11
0
-6.17284e-11
4.79616e-11
-496.426
-3.56129
-0.0128403
-3.09682e-05
-5.63238e-08
-9.05942e-11
1.37668e-11
-1.37668e-11
3.9968e-11
3.19744e-11
-496.426
-3.56129
-0.0128403
-3.09682e-05
-5.6271e-08
-1.12355e-10
3.55271e-12
2.30926e-11
1.9984e-11
-1.9984e-11
-496.426
-3.56129
-0.0128403
-3.09682e-05
-5.62626e-08
-1.10578e-10
1.03473e-10
-8.88178e-13
-1.02585e-10
6.66134e-12
-496.426
-3.56129
-0.0128403
-3.09682e-05
-5.62821e-08
-7.06102e-11
1.64313e-11
0
-2.44249e-11
4.44089e-12
-496.426
-3.56129
-0.0128403
-3.09682e-05
-5.63163e-08
-9.90319e-11
2.22045e-11
3.95239e-11
1.11022e-11
2.66454e-12
-496.426
-3.56129
-0.0128403
-3.09682e-05
-5.6295e-08
-8.83738e-11
1.9984e-11
0
-3.68594e-11
-1.77636e-12
-496.426
-3.56129
-0.0128403
-3.09681e-05
-5.62914e-08
-1.48326e-10
-4.57412e-11
3.9968e-11
6.4837e-11
-6.4837e-11
-496.426
-3.56129
-0.0128403
-3.09681e-05
-5.62488e-08
-1.02585e-10
-1.24345e-11
-1.28786e-11
-6.12843e-11
-1.95399e-11
-496.426
-3.56129
-0.0128403
-3.09682e-05
-5.62514e-08
-1.48326e-10
-5.72875e-11
3.9968e-11
6.4837e-11
-6.4837e-11
-496.426
-3.56129
-0.0128403
-3.09682e-05
-5.63496e-08
-5.50671e-11
5.41789e-11
0
0
8.43769e-12
-496.426
-3.56129
-0.0128403
-3.09681e-05
-5.62972e-08
-1.34559e-10
1.55431e-11
-1.86517e-11
-5.55112e-11
2.62013e-11
-496.426
-3.56129
-0.0128403
-3.09682e-05
-5.62665e-08
-3.55271e-12
-1.33227e-11
-1.03029e-10
1.68754e-11
-1.68754e-11
-496.426
-3.56129
-0.0128403
-3.09681e-05
-5.6311e-08
-9.19265e-11
1.22569e-10
1.00364e-10
-1.1946e-10
-1.05693e-10
-496.426
-3.56129
-0.0128403
-3.09682e-05
-5.63443e-08
-5.37348e-11
6.12843e-11
-1.73195e-11
-4.70735e-11
2.26485e-11
-496.426
-3.56129
-0.0128403
-3.09682e-05
-5.62301e-08
-9.05942e-11
-5.9952e-11
-1.37668e-11
-1.42109e-11
1.37668e-11
-496.426
-3.56129
-0.0128403
-3.09682e-05
-5.63167e-08
-5.28466e-11
2.22045e-11
-7.28306e-11
1.82077e-11
6.17284e-11
-496.426
-3.56129
-0.0128403
-3.09682e-05
-5.6342e-08
-1.05249e-10
5.37348e-11
4.44089e-13
-5.41789e-11
5.37348e-11
-496.426
-3.56129
-0.0128403
-3.09682e-05
-5.63234e-08
-9.10383e-11
6.4837e-11
-1.42109e-11
-1.11022e-11
3.24185e-11
-496.426
-3.56129
-0.0128403
-3.09682e-05
-5.63039e-08
-1.04805e-10
5.37348e-11
4.44089e-13
0
5.32907e-11
-496.426
-3.56129
-0.0128403
-3.09682e-05
-5.62608e-08
-5.10703e-11
-1.9984e-11
0
-1.24345e-11
-4.13003e-11
-496.426
-3.56129
-0.0128403
-3.09682e-05
-5.63172e-08
-9.05942e-11
6.88338e-11
-1.33227e-11
-1.55431e-11
7.32747e-11
-496.426
-3.56129
-0.0128403
-3.09682e-05
-5.63078e-08
-1.13687e-10
1.64313e-11
-4.44089e-13
7.10543e-12
2.35367e-11
-496.426
-3.56129
-0.0128403
-3.09682e-05
-5.62843e-08
7.10543e-12
-1.42109e-11
0
1.5099e-11
-1.18572e-10
-496.426
-3.56129
-0.0128403
-3.09682e-05
-5.6291e-08
-1.04805e-10
7.54952e-12
7.37188e-11
-2.88658e-11
-8.88178e-12
-496.426
-3.56129
-0.0128403
-3.09683e-05
-5.62874e-08
-1.05249e-10
5.68434e-11
0
-5.68434e-11
5.68434e-11
-496.426
-3.56129
-0.0128403
-3.09682e-05
-5.62488e-08
-4.75175e-11
-1.24345e-11
-6.4837e-11
3.55271e-12
5.68434e-11
-496.426
-3.56129
-0.0128403
-3.09683e-05
-5.63238e-08
-5.32907e-11
7.28306e-11
-8.88178e-13
-7.19425e-11
2.04281e-11
-496.426
-3.56129
-0.0128403
-3.09682e-05
-5.63545e-08
-9.05942e-11
5.68434e-11
-1.42109e-11
-2.66454e-12
7.54952e-12
-496.426
-3.56129
-0.0128403
-3.09682e-05
-5.6239e-08
-1.12799e-10
-3.24185e-11
5.41789e-11
2.08722e-11
-2.13163e-11
-496.426
-3.56129
-0.0128403
-3.09682e-05
-5.62785e-08
-8.52651e-11
-4.35207e-11
0
1.90958e-11
-2.70894e-11
-496.426
-3.56129
-0.0128403
-3.09682e-05
-5.62337e-08
-7.28306e-11
-2.13163e-11
3.24185e-11
-1.86517e-11
-2.44249e-11
-496.426
-3.56129
-0.0128403
-3.09682e-05
-5.62528e-08
9.32587e-12
1.59872e-11
0
8.88178e-13
-1.05249e-10
-496.426
-3.56129
-0.0128403
-3.09682e-05
-5.62701e-08
-1.24345e-11
2.30926e-11
-9.32587e-11
-2.26485e-11
-1.77636e-12
-496.426
-3.56129
-0.0128403
-3.09682e-05
-5.63509e-08
-5.59552e-11
6.17284e-11
0
-6.12843e-11
4.88498e-12
-496.426
-3.56129
-0.0128403
-3.09682e-05
-5.62896e-08
-9.10383e-11
0
0
3.9968e-11
5.10703e-11
-496.426
-3.56129
-0.0128403
-3.09682e-05
-5.62523e-08
-9.23706e-11
-4.30767e-11
3.9968e-11
5.06262e-11
-5.86198e-11
-496.426
-3.56129
-0.0128403
-3.09682e-05
-5.63283e-08
-1.04805e-10
3.95239e-11
1.42109e-11
0
0
-496.426
-3.56129
-0.0128403
-3.09682e-05
-5.63221e-08
-5.10703e-11
2.62013e-11
-2.13163e-11
-6.21725e-12
7.54952e-12
-496.426
-3.56129
-0.0128403
-3.09682e-05
-5.62497e-08
-1.05249e-10
-3.9968e-11
4.44089e-13
3.95239e-11
1.42109e-11
-496.426
-3.56129
-0.0128403
-3.09682e-05
-5.63021e-08
-9.90319e-11
-1.90958e-11
3.95239e-11
4.13003e-11
-4.13003e-11
-496.426
-3.56129
-0.0128403
-3.09682e-05
-5.62497e-08
-5.15143e-11
-1.33227e-12
-3.9968e-11
-1.82077e-11
5.9508e-11
-496.426
-3.56129
-0.0128403
-3.09682e-05
-5.63078e-08
-1.13687e-10
1.59872e-11
2.35367e-11
7.10543e-12
-7.54952e-12
-496.426
-3.56129
-0.0128403
-3.09681e-05
-5.63021e-08
-5.01821e-11
1.20792e-10
-1.00364e-10
0
-4.88498e-12
-496.426
-3.56129
-0.0128403
-3.09681e-05
-5.62634e-08
-1.00364e-10
8.88178e-12
-8.88178e-12
0
8.88178e-12
-496.426
-3.56129
-0.0128403
-3.09682e-05
-5.62621e-08
-1.39888e-10
-1.06581e-11
-1.86517e-11
-4.75175e-11
4.75175e-11
-496.426
-3.56129
-0.0128403
-3.09682e-05
-5.63487e-08
-1.06137e-10
4.88498e-12
1.42109e-11
-4.88498e-12
4.79616e-11
-496.426
-3.56129
-0.0128403
-3.09682e-05
-5.62355e-08
-1.54099e-10
-5.15143e-11
5.50671e-11
1.9984e-11
-5.63993e-11
-496.426
-3.56129
-0.0128403
-3.09682e-05
-5.62341e-08
-1.47438e-10
-4.39648e-11
0
1.95399e-11
4.39648e-11
-496.426
-3.56129
-0.0128403
-3.09682e-05
-5.62941e-08
-9.90319e-11
-2.70894e-11
3.81917e-11
1.90958e-11
-3.90799e-11
-496.426
-3.56129
-0.0128403
-3.09682e-05
-5.6287e-08
-1.03029e-10
5.90639e-11
0
-4.52971e-11
0
-496.426
-3.56129
-0.0128403
-3.09682e-05
-5.62941e-08
-5.90639e-11
-2.75335e-11
-3.95239e-11
-1.24345e-11
6.21725e-11
-496.426
-3.56129
-0.0128403
-3.09682e-05
-5.62497e-08
-1.13243e-10
-3.9968e-12
1.2168e-10
-8.43769e-12
-1.0969e-10
-496.426
-3.56129
-0.0128403
-3.09682e-05
-5.61493e-08
-1.24345e-11
-9.76996e-11
0
-2.30926e-11
-9.41469e-11
-496.426
-3.56129
-0.0128403
-3.09682e-05
-5.62776e-08
-5.55112e-11
-1.19904e-11
-4.52971e-11
-6.17284e-11
3.33067e-11
-496.426
-3.56129
-0.0128403
-3.09682e-05
-5.62892e-08
-9.14824e-11
1.42109e-11
-1.37668e-11
-1.42109e-11
3.24185e-11
-496.426
-3.56129
-0.0128403
-3.09682e-05
-5.63163e-08
-1.07914e-10
6.08402e-11
-5.86198e-11
-2.08722e-11
0
-496.426
-3.56129
-0.0128403
-3.09682e-05
-5.63238e-08
-5.32907e-11
5.37348e-11
-4.44089e-13
-5.32907e-11
-3.77476e-11
-496.426
-3.56129
-0.0128403
-3.09682e-05
-5.62341e-08
-5.15143e-11
-1.33227e-11
-3.9968e-11
-5.77316e-12
2.57572e-11
-496.426
-3.56129
-0.0128403
-3.09682e-05
-5.63101e-08
-1.12799e-10
2.17604e-11
1.37668e-11
0
-1.37668e-11
-496.426
-3.56129
-0.0128403
-3.09682e-05
-5.62683e-08
-7.28306e-11
-1.90958e-11
1.28786e-11
6.08402e-11
-5.24025e-11
-496.426
-3.56129
-0.0128403
-3.09682e-05
-5.63114e-08
-9.10383e-11
5.10703e-11
2.57572e-11
-6.4837e-11
-2.53131e-11
-496.426
-3.56129
-0.0128403
-3.09682e-05
-5.62639e-08
8.88178e-12
-4.44089e-13
-9.99201e-11
-5.77316e-12
-2.17604e-11
-496.426
-3.56129
-0.0128403
-3.09681e-05
-5.62115e-08
-1.11466e-10
8.88178e-13
-1.33227e-12
-1.00364e-10
8.88178e-13
-496.426
-3.56129
-0.0128403
-3.09682e-05
-5.62763e-08
-1.13243e-10
0
-3.10862e-12
-3.10862e-12
1.24789e-10
-496.426
-3.56129
-0.0128403
-3.09682e-05
-5.63078e-08
-1.10134e-10
0
1.95399e-11
0
-1.95399e-11
-496.426
-3.56129
-0.0128403
-3.09681e-05
-5.62763e-08
-5.10703e-11
8.43769e-12
-9.99201e-11
1.15463e-11
4.44089e-13
-496.426
-3.56129
-0.0128403
-3.09682e-05
-5.62741e-08
-1.13243e-10
0
2.30926e-11
0
-2.30926e-11
-496.426
-3.56129
-0.0128403
-3.09681e-05
-5.62714e-08
-1.26565e-10
1.59872e-11
3.9968e-12
4.44089e-13
1.33227e-11
-496.426
-3.56129
-0.0128403
-3.09681e-05
-5.6291e-08
-1.11466e-10
5.77316e-12
-5.77316e-12
-2.39808e-11
-1.68754e-11
-496.426
-3.56129
-0.0128403
-3.09681e-05
-5.62776e-08
-1.19016e-10
-3.9968e-12
6.66134e-12
-8.43769e-12
-1.11022e-11
-496.426
-3.56129
-0.0128403
-3.09681e-05
-5.63003e-08
-1.2701e-10
1.04361e-10
2.13163e-11
-1.03917e-10
9.99201e-11
-496.426
-3.56129
-0.0128403
-3.09682e-05
-5.6172e-08
-1.04805e-10
-1.01252e-10
1.02585e-10
1.01696e-10
-1.01252e-10
1.77636e-12
2.22045e-12
-2.66454e-12
3.9968e-12
-3.9968e-12
4.44089e-13
0
-2.22045e-12
5.77316e-12
-3.9968e-12
-6.21725e-12
-4.44089e-13
8.88178e-12
0
1.00808e-10
-7.54952e-12
-1.01696e-10
8.43769e-12
6.57252e-11
-1.33227e-12
-2.22045e-12
-2.66454e-12
1.33227e-12
-4.44089e-13
9.72555e-11
-8.43769e-12
-9.90319e-11
1.02141e-11
-1.77636e-12
-8.88178e-13
3.55271e-12
9.59233e-11
0
0
-2.04281e-11
2.22045e-12
1.9984e-11
-9.76996e-11
-5.32907e-12
0
1.06581e-10
0
-9.19265e-11
1.02585e-10
4.88498e-12
-1.06581e-10
-8.88178e-13
4.44089e-12
9.76996e-11
-8.88178e-13
-1.33227e-12
1.19904e-10
8.88178e-13
-1.03029e-10
9.63674e-11
-7.99361e-12
3.9968e-12
1.06581e-11
-1.05249e-10
-8.88178e-13
1.37668e-11
-1.03029e-10
1.33227e-12
0
4.44089e-12
-3.55271e-12
-8.88178e-13
4.88498e-12
9.76996e-11
-1.33227e-12
-4.88498e-12
-6.21725e-12
1.18128e-10
1.06581e-11
1.77636e-12
-1.90958e-11
-1.00808e-10
0
0
4.44089e-12
1.21236e-10
4.88498e-12
8.88178e-13
1.02141e-10
-1.77636e-12
-1.02141e-11
-9.76996e-11
-9.59233e-11
9.76996e-11
3.55271e-12
1.00808e-10
0
-8.88178e-13
0
4.44089e-13
-2.22045e-12
1.77636e-12
-9.72555e-11
-2.66454e-12
9.99201e-11
-6.21725e-12
-4.44089e-13
1.0747e-10
4.44089e-13
1.77636e-12
-1.82077e-11
-1.01696e-10
1.90958e-11
6.57252e-11
-1.33227e-12
-8.88178e-12
3.59712e-11
1.28786e-11
1.33227e-11
-6.66134e-12
6.66134e-12
-1.33227e-11
1.33227e-11
9.76996e-12
-6.9722e-11
-6.4837e-11
2.44249e-11
7.10543e-12
0
6.83897e-11
1.46549e-11
-1.82077e-11
-6.4837e-11
1.90958e-11
6.70575e-11
-3.28626e-11
3.10862e-11
0
1.77636e-12
6.12843e-11
2.93099e-11
-8.88178e-13
-1.95399e-11
-2.30926e-11
1.28786e-11
3.81917e-11
2.44249e-11
-2.62013e-11
-4.35207e-11
4.88498e-11
1.28786e-11
-1.82077e-11
2.35367e-11
1.86517e-11
-8.88178e-12
-3.06422e-11
0
2.93099e-11
1.77636e-11
1.19904e-11
-3.15303e-11
-1.82077e-11
-4.35207e-11
1.82077e-11
5.59552e-11
-1.33227e-11
2.44249e-11
4.30767e-11
4.44089e-12
3.19744e-11
-1.82077e-11
0
2.04281e-11
-3.64153e-11
-6.66134e-12
-8.43769e-12
-2.62013e-11
5.9508e-11
2.70894e-11
1.33227e-12
-5.59552e-11
-5.77316e-12
0
0
5.77316e-11
3.41949e-11
0
2.93099e-11
1.77636e-11
1.24345e-11
-3.19744e-11
-4.44089e-13
-4.30767e-11
0
7.41629e-11
5.32907e-12
1.08358e-10
-9.76996e-12
-1.01696e-10
7.99361e-12
-1.02141e-11
1.03917e-10
1.11022e-11
-5.32907e-12
1.00808e-10
-2.22045e-12
-2.66454e-12
1.33227e-12
1.04361e-10
-4.88498e-12
-7.10543e-12
1.77636e-12
-9.41469e-11
9.90319e-11
-2.66454e-12
-3.15303e-11
-1.73195e-11
-2.70894e-11
1.82077e-11
6.83897e-11
-3.19744e-11
-1.86517e-11
-4.30767e-11
1.82077e-11
3.95239e-11
4.39648e-11
-6.4837e-11
2.04281e-11
2.44249e-11
-3.15303e-11
-1.90958e-11
3.73035e-11
5.06262e-11
-3.73035e-11
8.43769e-12
3.64153e-11
3.59712e-11
-1.9984e-11
2.62013e-11
7.99361e-12
-8.88178e-13
-4.44089e-13
-1.9984e-11
-4.35207e-11
-4.17444e-11
6.39488e-11
-5.06262e-11
0
0
-5.01821e-11
4.92939e-11
8.88178e-13
0
0
-5.01821e-11
-4.61853e-11
-3.4639e-11
6.12843e-11
0
-3.68594e-11
-3.24185e-11
4.26326e-11
0
-3.4639e-11
3.24185e-11
1.02141e-11
0
0
-1.82077e-11
7.99361e-12
5.01821e-11
0
-3.9968e-11
-1.82077e-11
4.04121e-11
5.37348e-11
-4.88498e-11
1.02141e-11
4.84057e-11
-5.10703e-11
-1.19904e-11
1.37668e-11
2.44249e-11
3.4639e-11
-3.9968e-12
1.59872e-11
-8.88178e-13
-6.88338e-11
-1.86517e-11
4.44089e-13
1.9984e-11
3.24185e-11
3.55271e-11
0
-4.88498e-12
-2.30926e-11
4.44089e-13
-4.44089e-13
1.95399e-11
3.55271e-12
-2.30926e-11
4.44089e-13
-4.44089e-13
1.95399e-11
3.55271e-12
3.55271e-12
-5.32907e-12
0
0
0
1.03473e-10
-4.44089e-13
-9.76996e-11
-5.32907e-12
0
-3.24185e-11
-2.26485e-11
0
1.33227e-12
7.99361e-12
2.88658e-11
6.92779e-11
-6.12843e-11
-1.33227e-12
5.37348e-11
-8.43769e-12
-1.37668e-11
2.57572e-11
2.62013e-11
7.99361e-12
-6.66134e-12
0
1.33227e-11
9.76996e-12
-1.9984e-11
1.19904e-11
-1.19904e-11
1.73195e-11
1.24345e-11
-4.30767e-11
1.06581e-11
0
2.66454e-12
5.01821e-11
-3.86358e-11
-6.4837e-11
0
6.17284e-11
5.37348e-11
-6.17284e-11
-6.12843e-11
4.44089e-13
7.10543e-12
6.9722e-11
0
0
-1.06581e-11
5.37348e-11
4.79616e-11
3.55271e-12
3.55271e-12
-4.44089e-13
-9.76996e-12
1.33227e-11
1.19904e-11
-3.10862e-12
0
-1.73195e-11
5.37348e-11
9.32587e-12
-4.75175e-11
4.44089e-13
5.50671e-11
-4.44089e-13
-6.12843e-11
-2.17604e-11
7.54952e-12
0
-1.59872e-11
-1.37668e-11
-4.70735e-11
-1.37668e-11
0
1.37668e-11
6.30607e-11
2.04281e-11
-1.77636e-12
3.90799e-11
8.88178e-13
-1.28786e-11
2.53131e-11
-5.41789e-11
1.37668e-11
3.06422e-11
-3.37508e-11
2.66454e-12
0
-8.88178e-12
2.04281e-11
8.88178e-12
9.85878e-11
-4.44089e-13
-9.85878e-11
9.99201e-11
-1.95399e-11
-3.55271e-12
5.77316e-12
2.26485e-11
0
9.68114e-11
9.4591e-11
-9.68114e-11
-9.4591e-11
9.76996e-11
-8.88178e-13
5.9508e-11
1.77636e-11
-5.01821e-11
0
5.19584e-11
-2.57572e-11
-1.33227e-12
-3.4639e-11
-3.4639e-11
2.62013e-11
7.68274e-11
2.66454e-11
-1.28786e-11
-2.62013e-11
-5.01821e-11
1.19904e-11
-6.21725e-12
3.73035e-11
7.10543e-12
-5.01821e-11
-3.28626e-11
1.59872e-11
6.39488e-11
-5.50671e-11
-6.39488e-11
-1.42109e-11
0
3.55271e-11
5.32907e-12
-3.59712e-11
6.39488e-11
0
0
0
-1.02141e-11
1.02141e-11
-5.37348e-11
0
5.37348e-11
-1.02141e-11
-2.9754e-11
3.9968e-11
4.9738e-11
0
-2.13163e-11
-3.55271e-12
-1.9984e-11
-4.4853e-11
3.9968e-11
8.88178e-12
1.55431e-11
0
0
-3.9968e-11
-5.50671e-11
5.50671e-11
3.9968e-11
0
-3.9968e-11
-3.64153e-11
1.42109e-11
0
5.50671e-11
4.88498e-11
-5.68434e-11
-1.19904e-11
5.86198e-11
2.66454e-12
-1.02141e-11
1.77636e-11
-1.9984e-11
8.88178e-13
-3.4639e-11
0
6.35048e-11
-3.90799e-11
9.32587e-12
0
0
1.82077e-11
-5.32907e-12
-7.10543e-12
4.44089e-13
0
1.05249e-10
1.77636e-12
-1.00364e-10
0
-7.10543e-12
2.22045e-12
-1.33227e-12
1.19904e-10
-9.76996e-12
-1.03029e-10
1.11022e-10
-7.99361e-12
0
1.06581e-11
-1.05249e-10
1.00808e-10
4.08562e-11
1.02141e-11
-2.53131e-11
1.33227e-12
2.57572e-11
-4.9738e-11
0
4.79616e-11
-1.82077e-11
1.77636e-12
7.54952e-12
4.44089e-13
-4.44089e-13
-4.88498e-11
5.72875e-11
5.32907e-12
1.06581e-11
-5.77316e-12
-2.66454e-12
3.24185e-11
-1.33227e-12
-3.4639e-11
-6.35048e-11
-1.46549e-11
6.9722e-11
2.66454e-11
-1.28786e-11
2.93099e-11
-2.9754e-11
-2.66454e-12
6.35048e-11
-2.22045e-12
2.22045e-12
-2.93099e-11
-5.24025e-11
2.39808e-11
1.82077e-11
0
0
8.88178e-12
-4.88498e-12
6.88338e-11
2.35367e-11
-3.68594e-11
-3.9968e-11
-3.24185e-11
-2.44249e-11
4.13003e-11
3.24185e-11
2.35367e-11
1.59872e-11
2.88658e-11
2.66454e-12
1.11022e-11
-5.81757e-11
-3.55271e-12
1.90958e-11
0
2.08722e-11
-3.9968e-12
4.13003e-11
9.32587e-12
-2.22045e-11
-8.43769e-12
-3.95239e-11
5.90639e-11
5.90639e-11
-2.66454e-12
-1.77636e-12
0
5.50671e-11
-1.77636e-12
-1.95399e-11
-6.66134e-12
-3.5083e-11
3.68594e-11
2.62013e-11
0
-7.10543e-12
-4.88498e-12
5.77316e-12
1.07025e-10
-1.42109e-11
0
-5.32907e-12
-1.23013e-10
1.28786e-11
0
-1.24345e-11
1.59872e-11
2.17604e-11
5.32907e-12
1.33227e-12
1.03029e-10
9.63674e-11
-1.12355e-10
-9.76996e-11
1.06581e-11
-3.55271e-12
1.01696e-10
6.39488e-11
-1.77636e-11
-1.46549e-11
1.86517e-11
2.57572e-11
-4.9738e-11
-1.82077e-11
4.79616e-11
0
-3.37508e-11
1.46549e-11
-3.24185e-11
-1.68754e-11
4.04121e-11
-8.88178e-13
-4.44089e-13
1.02141e-11
-2.66454e-12
1.06581e-11
-5.50671e-11
-5.81757e-11
4.75175e-11
3.77476e-11
8.43769e-12
9.76996e-12
-1.82077e-11
-5.41789e-11
-3.73035e-11
0
4.75175e-11
-2.9754e-11
4.26326e-11
1.77636e-12
-1.64313e-11
4.75175e-11
2.93099e-11
-1.9984e-11
-4.4853e-11
-2.17604e-11
-1.02141e-11
4.44089e-13
-1.77636e-12
9.76996e-12
-1.68754e-11
-4.35207e-11
1.19904e-11
7.54952e-12
9.76996e-12
6.70575e-11
2.88658e-11
-1.95399e-11
-6.66134e-12
9.76996e-12
3.24185e-11
-4.35207e-11
-6.21725e-12
1.42109e-11
-4.44089e-13
1.86517e-11
3.86358e-11
-1.33227e-11
8.88178e-12
0
-8.88178e-12
-2.75335e-11
5.63993e-11
5.90639e-11
-4.44089e-12
-1.77636e-12
4.44089e-12
3.9968e-11
-3.33067e-11
-2.44249e-11
-7.99361e-12
2.04281e-11
1.90958e-11
-5.50671e-11
-3.55271e-12
3.9968e-11
-4.84057e-11
0
7.10543e-12
0
-1.9984e-11
-1.95399e-11
1.95399e-11
1.28786e-11
-4.44089e-13
1.0747e-10
-3.10862e-12
-1.0747e-10
9.4591e-11
-1.68754e-11
-9.05942e-11
1.19904e-10
-5.77316e-12
-9.68114e-11
0
-8.88178e-13
9.59233e-11
-5.32907e-12
7.54952e-12
-6.52811e-11
-1.33227e-12
6.9722e-11
-1.06581e-11
0
-3.24185e-11
5.77316e-12
1.06581e-11
-1.37668e-11
0
4.88498e-11
0
2.84217e-11
1.02141e-11
-5.06262e-11
-2.66454e-12
3.5083e-11
0
3.19744e-11
7.54952e-12
0
0
-1.37668e-11
-6.30607e-11
0
0
3.9968e-11
2.9754e-11
2.08722e-11
9.32587e-12
-5.32907e-11
-9.76996e-12
6.17284e-11
3.01981e-11
1.42109e-11
-1.06581e-11
-5.77316e-12
3.68594e-11
4.17444e-11
-1.59872e-11
-3.9968e-12
1.55431e-11
-4.26326e-11
-5.15143e-11
0
4.35207e-11
-1.90958e-11
-6.08402e-11
4.44089e-13
8.43769e-12
0
-8.88178e-12
-5.77316e-12
5.10703e-11
4.88498e-11
1.15463e-11
-1.42109e-11
-5.77316e-12
2.57572e-11
5.32907e-11
-3.81917e-11
-1.68754e-11
5.28466e-11
-3.59712e-11
1.06581e-11
0
-2.75335e-11
1.24345e-11
5.41789e-11
-1.55431e-11
-1.95399e-11
1.5099e-11
3.81917e-11
-3.37508e-11
-4.52971e-11
-8.88178e-12
-1.90958e-11
2.9754e-11
-3.55271e-12
1.11466e-10
0
-3.64153e-11
1.23457e-10
-6.88338e-11
0
-1.77636e-12
-4.44089e-13
-1.82077e-11
1.21236e-10
4.88498e-12
-1.02585e-10
1.02585e-10
1.01252e-10
-1.15907e-10
-9.76996e-11
9.76996e-12
-3.55271e-12
3.55271e-12
7.37188e-11
-4.44089e-13
-4.9738e-11
1.33227e-11
5.10703e-11
-2.17604e-11
-1.73195e-11
-3.55271e-11
-1.64313e-11
6.08402e-11
7.54952e-12
4.44089e-13
6.17284e-11
-8.88178e-13
-6.88338e-11
-1.90958e-11
6.12843e-11
-5.77316e-12
-2.88658e-11
6.66134e-12
-3.9968e-11
-6.66134e-12
7.37188e-11
6.17284e-11
-1.15463e-11
3.9968e-12
-5.41789e-11
-1.9984e-11
0
7.99361e-12
6.39488e-11
-6.21725e-12
2.22045e-12
6.4837e-11
-1.5099e-11
-8.43769e-12
2.22045e-12
0
0
-4.9738e-11
1.46549e-11
-8.88178e-13
-3.59712e-11
1.33227e-12
4.08562e-11
8.43769e-12
-4.52971e-11
1.06581e-11
5.68434e-11
1.28786e-11
1.55431e-11
5.59552e-11
3.55271e-12
-5.68434e-11
1.77636e-12
6.88338e-11
-7.32747e-11
-8.88178e-13
3.4639e-11
-5.50671e-11
-7.37188e-11
9.76996e-12
0
3.55271e-12
1.33227e-11
1.68754e-11
5.90639e-11
-9.32587e-12
-3.33067e-11
1.68754e-11
6.83897e-11
4.79616e-11
2.66454e-12
-4.75175e-11
-7.23865e-11
5.59552e-11
3.95239e-11
3.10862e-12
-3.9968e-11
-7.54952e-12
5.77316e-12
2.17604e-11
-1.42109e-11
1.77636e-12
1.12799e-10
-2.30926e-11
-1.2168e-10
4.44089e-13
1.73195e-11
3.10862e-12
0
1.02585e-10
2.22045e-12
0
9.76996e-11
-2.22045e-12
2.22045e-12
-9.72555e-11
-2.66454e-12
9.99201e-11
1.00364e-10
-1.03029e-10
-1.06581e-10
9.76996e-11
1.10134e-10
-9.63674e-11
-1.03029e-10
-1.90958e-11
0
1.24345e-11
1.10134e-10
0
-1.10134e-10
0
1.21236e-10
1.13243e-10
-1.18128e-10
-6.21725e-12
0
-1.07025e-10
4.44089e-13
8.88178e-13
-7.54952e-12
-1.9984e-11
9.32587e-12
1.06581e-11
-2.04281e-11
1.0747e-10
1.68754e-11
-1.18128e-10
1.10134e-10
2.04281e-11
6.21725e-12
-3.9968e-12
-9.9476e-11
9.4591e-11
-1.77636e-11
0
0
-8.70415e-11
0
1.06581e-10
1.33227e-12
0
1.02585e-10
-1.33227e-12
-1.00364e-10
-1.02585e-10
-1.82077e-11
-2.22045e-12
1.2168e-10
2.08722e-11
4.44089e-13
-1.86517e-11
0
1.42109e-11
-1.2168e-10
1.04805e-10
1.22569e-10
-1.04361e-10
0
1.11466e-10
0
0
8.34888e-11
-1.00808e-10
-6.43929e-11
-1.33227e-12
-1.95399e-11
1.77636e-12
-1.73195e-11
2.22045e-12
0
-1.03029e-10
2.35367e-11
-2.04281e-11
0
0
-1.9984e-11
1.20792e-10
-1.77636e-12
-8.88178e-13
-1.77636e-12
1.01252e-10
-9.90319e-11
-1.00808e-10
1.33227e-12
9.99201e-11
1.00808e-10
8.88178e-13
-5.77316e-12
2.22045e-12
0
-2.22045e-12
1.77636e-12
0
4.44089e-13
0
-9.99201e-11
-9.81437e-11
-6.52811e-11
-3.9968e-12
-4.44089e-13
4.44089e-12
-2.22045e-12
0
4.44089e-13
0
9.9476e-11
9.76996e-11
4.88498e-12
1.33227e-12
-1.77636e-12
-1.33227e-12
0
0
-1.42109e-11
0
1.12355e-10
9.76996e-11
5.32907e-12
-5.32907e-12
-1.9984e-11
-1.5099e-11
1.19904e-10
4.44089e-13
4.44089e-13
0
8.88178e-13
1.22125e-10
4.88498e-12
1.33227e-12
0
1.01696e-10
0
0
-1.09246e-10
0
1.10134e-10
1.33227e-12
-1.82077e-11
1.77636e-12
1.24345e-10
1.01252e-10
0
0
-1.95399e-11
0
2.04281e-11
1.33227e-12
-9.90319e-11
-9.76996e-12
0
7.99361e-12
1.03917e-10
0
-4.44089e-13
-3.9968e-12
0
1.07914e-10
-8.88178e-13
1.46549e-11
-8.88178e-13
8.88178e-11
-1.15463e-11
-9.23706e-11
1.5099e-11
-2.66454e-12
1.01252e-10
1.05693e-10
-1.1946e-10
-7.54952e-12
1.24789e-10
1.10134e-10
0
0
-4.44089e-13
0
1.33227e-12
1.33227e-12
-3.9968e-12
-4.44089e-13
6.21725e-12
4.44089e-13
0
0
-1.03917e-10
0
0
-1.04805e-10
-6.52811e-11
-4.44089e-12
0
4.44089e-12
-2.22045e-12
0
4.44089e-13
0
9.9476e-11
9.76996e-11
-9.32587e-12
3.15303e-11
0
1.77636e-11
-1.28786e-11
0
-4.88498e-12
-4.26326e-11
1.38112e-10
1.63869e-10
-7.59393e-11
-2.53131e-11
4.04121e-11
-9.32587e-12
3.4639e-11
0
-5.32907e-11
0
5.28466e-11
3.4639e-11
2.26485e-11
-1.82077e-11
0
1.82077e-11
0
3.10862e-12
-2.70894e-11
0
2.84217e-11
-1.77636e-12
-2.35367e-11
8.43769e-12
-1.11022e-11
-9.32587e-12
3.4639e-11
0
-4.30767e-11
0
3.59712e-11
2.75335e-11
-1.73195e-11
9.32587e-12
-4.44089e-13
-8.88178e-12
1.82077e-11
-8.88178e-13
-4.44089e-12
1.77636e-11
1.09246e-10
1.03917e-10
1.46549e-11
-3.24185e-11
2.66454e-12
3.33067e-11
1.73195e-11
0
0
0
1.01252e-10
1.19016e-10
-1.28786e-11
-2.26485e-11
1.86517e-11
2.66454e-11
-4.92939e-11
-4.44089e-13
2.22045e-11
8.88178e-13
1.25233e-10
9.76996e-11
-1.82077e-11
-4.88498e-11
0
3.15303e-11
1.82077e-11
-8.88178e-13
1.77636e-12
0
-4.44089e-13
1.90958e-11
-1.01696e-10
-1.11466e-10
-1.33227e-12
3.9968e-12
0
0
-1.64313e-11
0
1.24345e-10
1.08802e-10
-1.1946e-10
2.66454e-12
2.04281e-11
1.01252e-10
0
-1.03917e-10
-1.28786e-11
4.44089e-13
1.1191e-10
9.90319e-11
0
-2.70894e-11
-3.41949e-11
6.12843e-11
0
-3.4639e-11
3.01981e-11
0
1.08802e-10
1.38556e-10
4.44089e-13
3.55271e-12
4.08562e-11
-4.30767e-11
-5.19584e-11
-4.44089e-13
5.4623e-11
0
-5.77316e-12
3.81917e-11
4.44089e-11
3.10862e-11
-4.88498e-11
1.73195e-11
3.64153e-11
-4.9738e-11
-3.9968e-12
6.21725e-12
1.2701e-10
1.52767e-10
0
6.21725e-11
0
-6.21725e-11
0
0
6.21725e-11
0
-1.82077e-11
4.35207e-11
0
3.59712e-11
0
-3.59712e-11
0
0
-1.42109e-11
3.4639e-11
4.84057e-11
0
4.44089e-13
1.19904e-11
5.06262e-11
-6.26166e-11
-3.24185e-11
5.06262e-11
4.4853e-11
-4.44089e-13
-1.86517e-11
-7.54952e-12
-2.17604e-11
-6.12843e-11
3.59712e-11
3.15303e-11
-5.32907e-12
3.5083e-11
4.44089e-13
-3.68594e-11
-3.9968e-12
2.79776e-11
-1.82077e-11
1.11022e-11
5.06262e-11
-6.17284e-11
-3.24185e-11
5.06262e-11
3.9968e-11
-3.28626e-11
-1.42109e-11
2.53131e-11
0
1.15907e-10
-1.9984e-11
-9.59233e-11
0
-1.9984e-11
1.15907e-10
0
5.77316e-12
1.2168e-10
-1.5099e-11
-4.88498e-12
1.9984e-11
-1.5099e-11
0
1.95399e-11
1.01252e-10
0
0
1.00808e-10
-1.42109e-11
-1.77636e-11
-4.44089e-13
1.82077e-11
0
3.10862e-12
7.54952e-12
0
8.43769e-12
1.33227e-11
-5.32907e-12
1.95399e-11
0
-1.46549e-11
-1.77636e-11
0
3.06422e-11
0
1.03029e-10
1.16351e-10
-3.68594e-11
0
2.9754e-11
5.68434e-11
-6.21725e-12
8.88178e-13
-3.10862e-12
0
1.16795e-10
1.0747e-10
-1.55431e-11
6.83897e-11
-5.41789e-11
-1.42109e-11
5.32907e-11
-5.37348e-11
1.06581e-11
0
5.77316e-12
6.9722e-11
-1.33227e-12
-5.10703e-11
-5.50671e-11
3.68594e-11
2.66454e-11
-1.82077e-11
-8.88178e-13
-2.93099e-11
3.77476e-11
6.30607e-11
-3.9968e-12
3.5083e-11
1.82077e-11
1.33227e-11
-6.70575e-11
1.82077e-11
3.55271e-11
0
3.24185e-11
1.33227e-12
-1.86517e-11
-5.32907e-11
6.92779e-11
2.62013e-11
-7.01661e-11
-1.59872e-11
6.88338e-11
4.30767e-11
1.33227e-12
0
3.10862e-11
-1.95399e-11
-5.50671e-11
3.68594e-11
-6.21725e-12
-1.77636e-11
3.15303e-11
-2.93099e-11
3.77476e-11
6.30607e-11
-9.9476e-11
1.15907e-10
-1.77636e-12
-9.59233e-11
0
-1.77636e-12
9.99201e-11
0
2.22045e-12
1.02141e-10
-9.63674e-11
1.33227e-12
-1.77636e-12
-1.33227e-12
0
0
1.77636e-12
0
9.63674e-11
9.76996e-11
3.4639e-11
-2.70894e-11
-3.41949e-11
6.12843e-11
0
-3.4639e-11
-1.86517e-11
3.24185e-11
1.57208e-10
1.06581e-10
0
6.30607e-11
5.50671e-11
-6.30607e-11
-1.19904e-11
-4.44089e-13
2.04281e-11
0
-1.90958e-11
4.35207e-11
6.21725e-11
3.15303e-11
-1.82077e-11
3.55271e-11
-7.10543e-12
-1.82077e-11
-1.02141e-11
-4.26326e-11
1.2701e-10
1.52767e-10
-3.95239e-11
-1.02141e-11
0
-2.9754e-11
3.9968e-11
0
-1.02141e-11
0
1.42109e-11
4.35207e-11
-7.99361e-12
-1.90958e-11
-3.24185e-11
1.90958e-11
0
0
1.64313e-11
0
2.17604e-11
3.81917e-11
5.06262e-11
3.77476e-11
-3.24185e-11
-3.77476e-11
0
0
3.77476e-11
0
7.10543e-12
4.57412e-11
1.15463e-11
-6.21725e-12
-3.37508e-11
8.43769e-12
3.15303e-11
-3.41949e-11
-2.9754e-11
-4.44089e-13
2.30926e-11
2.35367e-11
-7.37188e-11
2.44249e-11
5.32907e-11
-7.54952e-11
1.95399e-11
5.37348e-11
-1.77636e-12
0
-1.73195e-11
4.44089e-13
1.06581e-10
9.9476e-11
-1.02585e-10
3.10862e-12
0
-1.02585e-10
9.9476e-11
0
4.44089e-12
1.04805e-10
-1.82077e-11
-9.99201e-11
2.04281e-11
1.00364e-10
0
-1.03917e-10
-4.44089e-13
0
1.05693e-10
1.05693e-10
-5.77316e-11
-1.06581e-11
7.4607e-11
-2.35367e-11
-1.73195e-11
3.4639e-11
1.24345e-11
0
-3.55271e-12
-8.43769e-12
0
3.55271e-11
2.66454e-12
-3.55271e-12
-3.4639e-11
2.22045e-12
3.59712e-11
0
1.01696e-10
1.02585e-10
-1.90958e-11
8.88178e-12
6.66134e-12
6.66134e-12
4.70735e-11
-1.9984e-11
4.88498e-12
-4.26326e-11
1.11022e-10
1.63869e-10
0
-8.88178e-13
1.90958e-11
-3.90799e-11
1.46549e-11
7.54952e-12
-6.43929e-11
0
6.08402e-11
2.26485e-11
3.24185e-11
-4.66294e-11
8.88178e-13
4.66294e-11
-6.08402e-11
0
6.21725e-11
0
1.03029e-10
1.04805e-10
1.86517e-11
-1.64313e-11
1.77636e-12
2.30926e-11
-1.24345e-11
4.44089e-13
3.9968e-12
0
1.12355e-10
1.04805e-10
-3.73035e-11
-2.57572e-11
2.84217e-11
-1.06581e-11
1.42109e-11
1.68754e-11
-6.79456e-11
1.15463e-11
6.9722e-11
1.55431e-11
3.9968e-11
-3.86358e-11
8.88178e-13
4.66294e-11
-1.24345e-11
4.44089e-13
-2.26485e-11
8.88178e-13
1.38112e-10
1.04805e-10
1.95399e-11
1.77636e-12
8.70415e-11
-2.22045e-12
-8.70415e-11
7.10543e-12
4.44089e-13
0
1.00364e-10
1.00808e-10
-1.77636e-11
-1.10578e-10
1.24789e-10
1.10134e-10
0
0
-4.44089e-13
0
1.33227e-12
1.33227e-12
1.82077e-11
3.19744e-11
-3.4639e-11
2.66454e-12
0
-3.4639e-11
3.59712e-11
3.24185e-11
9.01501e-11
9.4591e-11
0
4.61853e-11
-7.99361e-12
1.28786e-11
-5.10703e-11
-7.54952e-12
3.4639e-11
0
1.2923e-10
1.12355e-10
1.59872e-11
2.22045e-12
3.28626e-11
-6.66134e-12
4.44089e-12
-1.28786e-11
1.06581e-11
0
3.55271e-12
3.24185e-11
0
6.30607e-11
3.64153e-11
-4.44089e-11