/*--------------------------------*- C++ -*----------------------------------*\
  =========                 |
  \\      /  F ield         | OpenFOAM: The Open Source CFD Toolbox
   \\    /   O peration     | Website:  https://openfoam.org
    \\  /    A nd           | Version:  10
     \\/     M anipulation  |
\*---------------------------------------------------------------------------*/
FoamFile
{
    format      ascii;
    class       volScalarField;
    location    "1.9";
    object      gradTy;
}
// * * * * * * * * * * * * * * * * * * * * * * * * * * * * * * * * * * * * * //

dimensions      [0 -1 0 1 0 0 0];

internalField   nonuniform List<scalar> 
3000
(
-1.45972e-09
-2.44249e-11
2.66454e-11
-2.04281e-11
-1.42109e-11
-2.13163e-11
-7.54952e-12
-1.06137e-10
-2.13163e-11
-1.0969e-10
-1.42419e-09
-2.44249e-11
1.82077e-11
1.37668e-11
-2.30926e-11
0
-2.44249e-11
-1.06137e-10
1.03917e-10
-1.06137e-10
1.11022e-11
0
-1.9984e-11
6.21725e-12
5.28466e-11
1.2701e-10
0
1.05693e-10
1.37668e-11
0
-3.95239e-11
7.99361e-12
-4.08562e-11
-3.4639e-11
-1.33227e-12
-2.44249e-11
1.86517e-11
1.05693e-10
0
-2.08722e-11
-2.13163e-11
-9.32587e-12
1.19904e-11
-7.54952e-12
-6.30607e-11
-1.05693e-10
-1.68754e-11
-1.27454e-10
1.11022e-10
3.10862e-12
0
-7.99361e-12
0
-5.77316e-12
1.42109e-11
1.27898e-10
9.81437e-11
0
-1.15463e-11
0
4.08562e-11
6.66134e-11
4.44089e-12
3.15303e-11
2.44249e-11
4.44089e-13
9.32587e-12
1.27454e-10
-1.03473e-10
-1.59872e-11
-7.10543e-12
1.59872e-11
6.70575e-11
3.15303e-11
5.06262e-11
0
-9.90319e-11
-1.05693e-10
0
-3.10862e-12
-7.72715e-11
1.45128e-09
-1.33227e-11
3.15303e-11
-8.88178e-13
1.05249e-10
1.21236e-10
-6.21725e-12
-8.88178e-13
1.59872e-11
-3.64153e-11
1.49303e-09
-3.55271e-11
3.55271e-11
-4.04121e-11
2.22045e-12
1.1191e-10
9.85878e-11
-9.41469e-11
2.44249e-11
-1.48814e-09
2.35367e-11
-2.08722e-11
-4.79616e-11
-5.81757e-11
-4.57412e-11
-4.04121e-11
-1.23901e-10
-6.30607e-11
-2.22045e-12
-1.46105e-09
-2.57572e-11
8.88178e-12
-4.84057e-11
-7.81597e-11
-3.9968e-12
-7.37188e-11
-1.23901e-10
0
-8.88178e-12
1.77636e-12
4.88498e-12
1.73195e-11
6.21725e-12
5.68434e-11
6.08402e-11
8.43769e-12
-4.44089e-12
2.75335e-11
-4.21885e-11
-3.4639e-11
7.54952e-12
-3.64153e-11
0
0
-5.59552e-11
3.64153e-11
8.88178e-12
-4.17444e-11
-5.32907e-11
-1.64313e-11
-5.41789e-11
1.24345e-11
2.22045e-11
-7.81597e-11
-1.9984e-11
-4.21885e-11
5.32907e-12
3.5083e-11
3.4639e-11
0
0
0
5.77316e-12
6.21725e-11
0
3.55271e-11
-8.88178e-13
3.55271e-11
0
3.5083e-11
3.24185e-11
3.55271e-12
-2.17604e-11
7.10543e-11
7.99361e-12
2.30926e-11
9.76996e-12
-5.4623e-11
-4.61853e-11
-2.22045e-12
-2.66454e-12
6.12843e-11
0
1.46549e-11
7.77156e-11
0
-8.88178e-12
-4.70735e-11
-1.55431e-11
1.47704e-09
1.52589e-09
-1.46549e-11
1.77636e-12
-4.88498e-12
1.73195e-11
3.41949e-11
1.12799e-10
3.33067e-11
5.15143e-11
1.50679e-09
1.55431e-09
-3.64153e-11
1.33227e-12
-9.76996e-12
3.9968e-12
-1.55431e-11
1.23013e-10
3.28626e-11
7.41629e-11
-1.53078e-09
-1.59872e-11
-1.33227e-11
-2.26485e-11
-6.4837e-11
-2.4869e-11
-2.22045e-12
-7.54952e-12
-1.07025e-10
-1.24345e-11
-1.51479e-09
1.15463e-11
1.28786e-11
-7.37188e-11
-2.66454e-12
-4.44089e-12
-4.13003e-11
-5.32907e-12
-1.85629e-10
-8.17124e-11
3.4639e-11
4.88498e-11
-2.93099e-11
-2.84217e-11
2.08722e-11
-5.63993e-11
-2.13163e-11
-9.76996e-12
-7.77156e-11
-3.4639e-11
-4.17444e-11
-4.17444e-11
-3.06422e-11
0
-6.21725e-11
-7.72715e-11
-1.5099e-11
-6.08402e-11
0
0
-1.90958e-11
-2.13163e-11
5.4623e-11
-3.06422e-11
5.4623e-11
0
-1.90958e-11
1.19904e-11
0
2.22045e-11
0
3.19744e-11
-2.53131e-11
0
7.99361e-12
0
1.55431e-11
1.86517e-11
1.5099e-11
1.5099e-11
7.54952e-12
-2.75335e-11
-3.73035e-11
5.06262e-11
-6.66134e-12
7.90479e-11
0
-1.11022e-11
1.55431e-11
-5.63993e-11
7.41629e-11
4.08562e-11
-5.32907e-12
3.06422e-11
-7.99361e-12
-4.44089e-13
0
-1.86517e-11
-1.55431e-11
4.13003e-11
1.50369e-09
1.50058e-09
-4.88498e-12
-1.19904e-11
-4.44089e-12
-2.13163e-11
4.21885e-11
-3.9968e-12
6.61693e-11
8.17124e-11
1.47748e-09
1.44329e-09
1.90958e-11
-4.44089e-13
6.35048e-11
5.68434e-11
4.13003e-11
4.4853e-11
8.17124e-11
2.4869e-11
-1.50679e-09
-1.68754e-11
-1.33227e-11
-1.42109e-11
-5.4623e-11
-3.55271e-11
-1.46549e-11
-1.27454e-10
-1.55431e-11
-4.39648e-11
-1.47216e-09
-1.77636e-11
-2.93099e-11
-2.04281e-11
-7.06102e-11
-7.81597e-11
-5.86198e-11
-1.64757e-10
-1.73195e-11
-4.39648e-11
1.42109e-11
1.02141e-11
8.88178e-13
2.93099e-11
1.33227e-12
1.68754e-11
-1.68754e-11
2.17604e-11
-1.73195e-11
8.43769e-12
-3.24185e-11
0
8.43769e-12
2.9754e-11
7.06102e-11
5.63993e-11
1.86517e-11
-1.55431e-11
1.9984e-11
4.21885e-11
-8.88178e-12
-9.76996e-12
-2.44249e-11
-2.9754e-11
3.77476e-11
1.73195e-11
2.62013e-11
-1.64313e-11
1.19904e-11
-4.26326e-11
-1.19904e-11
3.77476e-11
3.19744e-11
-2.93099e-11
0
1.33227e-11
0
0
4.44089e-13
0
2.57572e-11
1.11022e-11
3.9968e-11
3.64153e-11
-5.10703e-11
-7.01661e-11
-3.9968e-12
0
9.32587e-12
6.43929e-11
9.76996e-12
5.32907e-12
-4.79616e-11
3.68594e-11
-1.46549e-11
-1.24345e-11
-4.44089e-13
6.66134e-11
-6.08402e-11
-6.08402e-11
1.47393e-09
1.52145e-09
3.77476e-11
-2.22045e-11
6.66134e-11
6.61693e-11
1.22569e-10
-4.44089e-12
1.42109e-11
1.42109e-11
1.50457e-09
1.49036e-09
7.63833e-11
-1.64313e-11
1.5099e-11
1.82077e-11
1.53655e-10
-1.37668e-11
6.21725e-11
6.21725e-11
-1.48281e-09
-1.86517e-11
-7.54952e-12
-2.17604e-11
-6.4837e-11
-5.68434e-11
-2.44249e-11
-1.23013e-10
-1.48326e-10
-4.52971e-11
-1.51745e-09
-3.90799e-11
-7.99361e-12
-6.43929e-11
-6.4837e-11
2.04281e-11
-6.39488e-11
-1.72307e-10
-1.85185e-10
-6.08402e-11
2.53131e-11
4.17444e-11
6.21725e-12
-2.9754e-11
2.08722e-11
-4.44089e-13
2.08722e-11
-4.08562e-11
-3.68594e-11
2.75335e-11
0
0
0
4.17444e-11
0
-7.72715e-11
-1.55431e-11
4.08562e-11
0
0
-6.08402e-11
-6.35048e-11
-6.21725e-12
7.99361e-12
-2.08722e-11
0
-6.08402e-11
4.57412e-11
0
1.37668e-11
2.17604e-11
2.66454e-11
0
-4.17444e-11
0
0
0
0
0
5.59552e-11
2.26485e-11
5.81757e-11
4.70735e-11
-3.24185e-11
0
3.41949e-11
4.13003e-11
-5.50671e-11
5.63993e-11
-5.59552e-11
5.28466e-11
4.61853e-11
0
1.37668e-11
0
0
1.5099e-11
1.55431e-11
0
0
1.48193e-09
1.45706e-09
-2.84217e-11
7.23865e-11
6.4837e-11
2.30926e-11
1.33227e-12
6.03961e-11
8.88178e-13
8.17124e-11
1.43041e-09
1.44329e-09
1.90958e-11
4.75175e-11
6.4837e-11
5.68434e-11
4.13003e-11
2.22045e-12
5.68434e-11
2.4869e-11
-1.49214e-09
-1.64313e-11
-1.33227e-11
-1.82077e-11
-6.4837e-11
-2.4869e-11
-1.84741e-10
-1.77636e-12
-1.06581e-10
-4.66294e-11
-1.46905e-09
1.19904e-11
1.28786e-11
-7.90479e-11
-6.4837e-11
-8.17124e-11
-1.85185e-10
-6.21725e-12
-1.85629e-10
-8.17124e-11
1.19904e-11
4.88498e-11
-3.59712e-11
-2.30926e-11
7.99361e-12
2.13163e-11
6.88338e-11
4.44089e-13
-7.77156e-11
3.4639e-11
-4.17444e-11
-4.17444e-11
0
3.90799e-11
0
-4.44089e-13
5.4623e-11
1.68754e-11
5.50671e-11
0
1.06581e-11
-2.13163e-11
4.44089e-13
3.33067e-11
-7.99361e-12
-7.72715e-11
-5.28466e-11
-5.32907e-12
0
-1.24345e-11
0
4.44089e-13
-5.55112e-11
-2.13163e-11
7.99361e-12
6.88338e-11
-5.50671e-11
-4.21885e-11
1.33227e-12
5.59552e-11
-3.86358e-11
3.9968e-12
2.30926e-11
-2.04281e-11
2.08722e-11
5.9508e-11
2.70894e-11
-4.57412e-11
4.26326e-11
-2.17604e-11
7.50511e-11
7.28306e-11
-5.32907e-12
-1.82077e-11
-7.99361e-12
-1.24345e-11
3.41949e-11
0
1.24345e-11
-4.13003e-11
1.54854e-09
1.47971e-09
3.55271e-11
-3.01981e-11
4.26326e-11
-2.22045e-12
1.42553e-10
6.08402e-11
1.42553e-10
4.17444e-11
1.47793e-09
1.45395e-09
5.90639e-11
1.95399e-11
6.43929e-11
4.44089e-13
1.51434e-10
3.95239e-11
1.16795e-10
6.03961e-11
-1.49214e-09
7.54952e-12
-7.99361e-12
2.9754e-11
-5.37348e-11
-5.72875e-11
-1.02141e-10
-1.68754e-11
-3.9968e-12
-5.68434e-11
-1.48503e-09
-6.66134e-12
-3.4639e-11
-2.08722e-11
-7.4607e-11
-4.21885e-11
-1.58984e-10
-6.66134e-11
-6.03961e-11
-8.88178e-13
-8.88178e-12
-9.76996e-12
-2.4869e-11
-3.73035e-11
4.44089e-13
6.88338e-11
-3.81917e-11
-4.13003e-11
3.9968e-12
7.59393e-11
3.41949e-11
3.19744e-11
8.88178e-13
4.17444e-11
0
0
-1.5099e-11
4.13003e-11
0
0
4.92939e-11
-3.77476e-11
-6.21725e-12
1.9984e-11
-2.08722e-11
-5.32907e-11
2.22045e-11
1.95399e-11
-4.21885e-11
-3.95239e-11
-1.02141e-11
-5.77316e-12
-4.44089e-13
-4.08562e-11
0
4.08562e-11
0
-4.08562e-11
-1.5099e-11
4.44089e-13
-1.02141e-11
5.81757e-11
4.70735e-11
-1.33227e-12
7.99361e-12
1.86517e-11
-4.13003e-11
-2.93099e-11
2.22045e-11
1.90958e-11
7.54952e-12
-2.88658e-11
-4.44089e-13
-4.44089e-13
0
0
5.63993e-11
3.95239e-11
1.5099e-11
-1.90958e-11
1.48326e-09
1.48948e-09
-2.26485e-11
2.93099e-11
5.68434e-11
2.35367e-11
4.17444e-11
6.08402e-11
2.57572e-11
2.4869e-11
1.47748e-09
1.51745e-09
1.90958e-11
6.08402e-11
6.4837e-11
4.44089e-13
8.88178e-13
1.90958e-11
6.57252e-11
4.4853e-11
-1.47748e-09
-2.30926e-11
-4.44089e-11
-3.55271e-11
-5.9508e-11
4.88498e-12
-1.13687e-10
-1.13243e-10
-1.68754e-11
-1.13687e-10
-1.50235e-09
-5.59552e-11
3.10862e-12
-2.4869e-11
-5.72875e-11
1.59872e-11
-1.53211e-10
-1.23013e-10
-6.66134e-11
-1.71863e-10
-1.82077e-11
-4.88498e-12
3.01981e-11
3.4639e-11
-5.77316e-11
-5.77316e-11
-6.61693e-11
-5.9952e-11
-4.08562e-11
-6.66134e-11
0
3.15303e-11
-8.43769e-12
-3.64153e-11
-5.32907e-12
-6.66134e-12
-1.82077e-11
-5.19584e-11
5.68434e-11
1.95399e-11
-7.10543e-12
5.77316e-12
2.84217e-11
-6.88338e-11
6.75016e-11
5.15143e-11
2.57572e-11
0
1.06581e-11
2.62013e-11
-3.4639e-11
0
-4.08562e-11
3.55271e-11
-5.55112e-11
-2.62013e-11
0
0
-1.68754e-11
0
2.84217e-11
1.33227e-11
-2.75335e-11
8.88178e-12
-6.4837e-11
-4.57412e-11
-2.04281e-11
6.26166e-11
-2.08722e-11
-5.77316e-12
3.86358e-11
6.66134e-12
0
-8.88178e-13
0
0
4.13003e-11
0
-3.95239e-11
-3.41949e-11
1.43663e-09
1.46239e-09
-2.13163e-11
2.17604e-11
5.19584e-11
6.08402e-11
4.30767e-11
-6.66134e-12
1.71863e-10
3.24185e-11
1.45972e-09
1.46771e-09
1.19904e-11
-1.55431e-11
5.59552e-11
3.10862e-11
8.88178e-13
5.59552e-11
1.70086e-10
6.03961e-11
-1.46283e-09
-1.86517e-11
-1.15463e-11
3.01981e-11
-5.37348e-11
-1.07914e-10
-1.01252e-10
-1.68754e-11
-1.50102e-10
-5.63993e-11
-1.43618e-09
3.64153e-11
-7.50511e-11
-3.64153e-11
-7.4607e-11
-1.85629e-10
-1.59428e-10
-6.66134e-11
-1.74083e-10
-5.72875e-11
-2.26485e-11
2.62013e-11
-2.70894e-11
-3.73035e-11
5.72875e-11
-7.77156e-11
3.9968e-12
0
-8.88178e-12
4.26326e-11
-4.39648e-11
-4.21885e-11
0
3.73035e-11
8.88178e-13
0
3.90799e-11
4.08562e-11
5.50671e-11
0
4.84057e-11
2.84217e-11
-3.59712e-11
-3.06422e-11
-7.86038e-11
5.63993e-11
-1.95399e-11
-2.13163e-11
-8.88178e-13
-6.21725e-12
4.44089e-13
3.5083e-11
6.66134e-12
1.95399e-11
7.99361e-12
3.37508e-11
-5.4623e-11
0
-3.90799e-11
5.63993e-11
-1.9984e-11
-1.86517e-11
5.77316e-12
1.33227e-11
2.04281e-11
-2.22045e-11
-1.77636e-12
-2.88658e-11
5.32907e-11
4.08562e-11
3.77476e-11
3.9968e-12
-6.66134e-12
-1.86517e-11
-7.99361e-12
-1.86517e-11
1.59872e-11
1.24345e-11
2.75335e-11
-5.59552e-11
1.45306e-09
1.4615e-09
5.32907e-11
4.21885e-11
4.30767e-11
4.79616e-11
1.30118e-10
6.79456e-11
1.06581e-11
-2.22045e-12
1.43796e-09
1.44507e-09
5.90639e-11
1.68754e-11
6.43929e-11
6.57252e-11
1.70086e-10
1.24345e-11
3.68594e-11
7.59393e-11
5.63993e-11
2.44249e-11
-1.46549e-11
-3.59712e-11
-1.9984e-11
-1.06581e-10
-2.08722e-11
-1.06137e-10
-2.35367e-11
-3.10862e-12
3.01981e-11
-3.28626e-11
-2.04281e-11
-2.70894e-11
-2.35367e-11
-1.30118e-10
-2.08722e-11
-1.31006e-10
8.88178e-13
-2.44249e-11
3.68594e-11
-4.66294e-11
1.42109e-11
-2.57572e-11
5.9952e-11
-2.44249e-11
1.26565e-10
-1.5099e-11
2.44249e-11
0
2.22045e-12
0
0
-3.5083e-11
-1.33227e-12
0
-3.55271e-12
-4.44089e-13
0
0
-1.59872e-11
-8.88178e-13
-2.04281e-11
-6.21725e-12
-4.88498e-11
0
-1.30118e-10
8.43769e-12
-2.08722e-11
-3.10862e-12
2.26485e-11
-3.10862e-12
0
3.5083e-11
2.39808e-11
1.82077e-11
2.44249e-11
2.44249e-11
-6.21725e-12
0
5.77316e-12
4.04121e-11
5.32907e-12
2.53131e-11
1.02141e-11
1.73195e-11
1.73195e-11
-4.44089e-12
2.13163e-11
-1.46549e-11
-2.26485e-11
4.39648e-11
8.88178e-13
1.06581e-11
-9.76996e-12
0
-2.44249e-11
1.03473e-10
3.55271e-12
1.82077e-11
1.37934e-09
1.51301e-09
6.08402e-11
1.33227e-12
-9.76996e-12
1.14575e-10
6.21725e-12
1.24345e-11
1.07025e-10
1.28786e-10
1.43041e-09
1.52367e-09
6.70575e-11
-2.39808e-11
8.88178e-13
1.12799e-10
2.30926e-11
-1.04361e-10
1.09246e-10
1.13243e-10
-1.03473e-10
-1.17684e-10
-1.05693e-10
-1.06581e-10
-1.08802e-10
3.9968e-12
-1.17684e-10
-1.03473e-10
-1.06581e-10
-3.77476e-11
-1.01696e-10
-1.0969e-10
-1.0747e-10
-1.06137e-10
-1.11022e-10
0
-1.19904e-10
-1.05249e-10
-1.06137e-10
-1.13243e-10
1.77636e-12
8.88178e-12
1.03917e-10
4.44089e-13
1.03473e-10
-1.2701e-10
1.13243e-10
1.77636e-12
4.44089e-13
-7.4607e-11
-1.77636e-12
9.50351e-11
1.77636e-12
-4.44089e-12
1.10134e-10
-1.02585e-10
6.66134e-12
1.77636e-12
0
1.0747e-10
-2.13163e-11
-2.22045e-12
3.9968e-12
-4.44089e-13
-1.04805e-10
1.23013e-10
-1.15463e-10
1.05693e-10
-4.44089e-13
-4.44089e-13
1.08802e-10
-9.81437e-11
0
0
-1.08802e-10
0
0
0
4.44089e-13
4.44089e-13
1.59872e-11
-1.90958e-11
-1.17684e-10
1.03917e-10
2.66454e-12
3.9968e-12
-8.88178e-12
-1.06581e-10
-2.04281e-11
4.44089e-12
-1.14575e-10
1.0969e-10
0
1.09246e-10
1.08802e-10
1.02585e-10
1.01696e-10
0
-4.88498e-12
0
1.13243e-10
1.27454e-10
1.19904e-10
2.22045e-12
1.08358e-10
4.44089e-13
1.26565e-10
1.08802e-10
2.93099e-11
1.06581e-10
1.15463e-10
3.55271e-12
1.0969e-10
1.77636e-12
1.33227e-12
4.44089e-12
9.32587e-12
1.0969e-10
1.33227e-11
3.9968e-12
-7.23865e-11
-4.88498e-12
-3.24185e-11
-1.04361e-10
-1.9984e-11
-1.13687e-10
6.66134e-12
-1.9984e-11
4.44089e-13
-8.12683e-11
-4.52971e-11
-7.14984e-11
-1.95399e-11
-1.77636e-10
-2.04281e-11
-1.0747e-10
1.5099e-11
-2.04281e-11
-7.32747e-11
-7.14984e-11
-4.44089e-13
-6.70575e-11
-7.10543e-12
-8.03801e-11
-1.68754e-11
-9.76996e-12
5.77316e-12
5.32907e-12
-3.01981e-11
-2.9754e-11
4.44089e-13
5.50671e-11
8.88178e-13
1.9984e-11
-4.66294e-11
-4.44089e-13
-4.84057e-11
0
4.39648e-11
0
5.15143e-11
3.64153e-11
1.90958e-11
6.66134e-11
3.64153e-11
1.46549e-11
-2.66454e-11
-5.32907e-12
-5.15143e-11
3.86358e-11
0
-5.50671e-11
0
1.73195e-11
5.15143e-11
0
1.77636e-11
1.95399e-11
1.59872e-11
-3.90799e-11
1.42109e-11
-2.08722e-11
-1.28786e-11
1.11022e-11
-4.88498e-12
0
-3.01981e-11
1.42109e-11
1.55431e-11
-5.32907e-12
2.57572e-11
3.64153e-11
0
2.13163e-11
1.33227e-11
4.44089e-13
0
0
-6.70575e-11
3.86358e-11
4.44089e-13
6.4837e-11
1.42109e-10
-7.99361e-12
7.54952e-12
-8.88178e-13
5.4623e-11
1.14131e-10
6.57252e-11
1.0969e-10
1.42109e-11
4.26326e-11
1.28342e-10
3.10862e-12
2.22045e-12
-1.33227e-12
2.39808e-11
1.0969e-10
8.08242e-11
1.04805e-10
-2.66454e-12
-4.26326e-11
-1.86517e-11
-7.32747e-11
-1.0969e-10
3.55271e-12
-1.35447e-10
-1.86517e-11
-8.08242e-11
-1.04805e-10
-5.77316e-12
-3.41949e-11
-7.06102e-11
-1.42109e-11
-1.54543e-10
-4.26326e-11
-1.66978e-10
-3.9968e-12
-1.46549e-11
-1.49214e-10
-7.10543e-11
3.55271e-11
-1.24345e-11
4.35207e-11
-4.88498e-12
-1.95399e-11
2.62013e-11
0
5.10703e-11
-6.4837e-11
-6.66134e-12
2.08722e-11
7.54952e-12
0
-1.86517e-11
-1.86517e-11
5.32907e-11
-5.86198e-11
4.44089e-13
-1.90958e-11
7.06102e-11
-6.39488e-11
-3.9968e-12
2.04281e-11
-3.10862e-11
-2.57572e-11
-6.39488e-11
1.86517e-11
-4.35207e-11
2.93099e-11
-3.4639e-11
-4.21885e-11
1.86517e-11
-4.21885e-11
0
1.90958e-11
0
1.90958e-11
-4.26326e-11
0
-1.37668e-11
4.84057e-11
-2.9754e-11
-5.32907e-12
2.22045e-11
-2.13163e-11
4.35207e-11
-5.01821e-11
6.9722e-11
2.13163e-11
0
4.75175e-11
8.88178e-13
-2.44249e-11
0
-3.37508e-11
-3.06422e-11
0
4.75175e-11
1.90958e-11
-4.44089e-12
4.44089e-13
4.70735e-11
-9.32587e-12
1.64313e-11
4.75175e-11
6.21725e-12
3.24185e-11
-2.04281e-11
1.68754e-11
2.66454e-11
-1.46549e-11
2.62013e-11
5.68434e-11
6.61693e-11
6.03961e-11
2.04281e-11
2.62013e-11
-1.46549e-11
4.75175e-11
-1.68754e-11
-8.21565e-11
-3.59712e-11
-8.21565e-11
-3.37508e-11
-7.37188e-11
-1.13243e-10
-4.44089e-13
-7.41629e-11
3.10862e-12
-2.22045e-11
-5.68434e-11
-2.9754e-11
-2.9754e-11
-2.22045e-12
-2.17604e-11
-1.18128e-10
-2.22045e-11
-4.44089e-13
-6.66134e-12
-2.44249e-11
5.4623e-11
-1.15463e-11
7.19425e-11
-2.22045e-12
2.04281e-11
-2.17604e-11
-5.24025e-11
4.70735e-11
1.77636e-12
-5.19584e-11
-1.64313e-11
-3.95239e-11
2.08722e-11
-9.76996e-12
-5.24025e-11
-6.61693e-11
-5.24025e-11
-7.32747e-11
1.11022e-11
-5.77316e-12
-5.50671e-11
-4.88498e-12
-1.55431e-11
3.41949e-11
3.19744e-11
2.66454e-11
3.19744e-11
1.19904e-11
-7.10543e-12
-4.44089e-13
6.4837e-11
0
-1.77636e-11
0
5.68434e-11
1.46549e-11
5.68434e-11
6.4837e-11
-1.59872e-11
3.9968e-11
4.26326e-11
5.77316e-11
-1.37668e-11
-9.76996e-12
-3.19744e-11
-6.21725e-11
-4.66294e-11
-5.19584e-11
-4.52971e-11
3.5083e-11
-3.59712e-11
3.24185e-11
2.35367e-11
-2.44249e-11
8.88178e-13
5.19584e-11
-5.68434e-11
8.88178e-12
-2.53131e-11
-1.37668e-11
3.86358e-11
-2.04281e-11
2.88658e-11
1.73195e-11
5.28466e-11
1.70086e-10
6.83897e-11
6.57252e-11
1.59428e-10
1.77636e-11
4.44089e-11
1.9984e-11
-5.77316e-12
4.13003e-11
1.68754e-11
1.18128e-10
7.37188e-11
0
1.46994e-10
-1.46549e-11
2.04281e-11
-1.33227e-12
-5.63993e-11
-1.33227e-12
-1.04805e-10
-1.29674e-10
-1.33227e-12
-6.61693e-11
-1.4122e-10
-5.86198e-11
2.39808e-11
-3.73035e-11
-1.46549e-11
-6.4837e-11
-1.6831e-10
-1.52767e-10
-7.19425e-11
-1.37668e-11
-1.67422e-10
5.32907e-12
-6.9722e-11
2.66454e-12
5.15143e-11
-5.50671e-11
-7.10543e-11
-4.35207e-11
-7.10543e-11
3.01981e-11
-2.93099e-11
3.9968e-11
-1.42109e-11
1.33227e-11
0
4.08562e-11
4.13003e-11
3.90799e-11
-7.99361e-12
0
4.13003e-11
-2.9754e-11
1.68754e-11
-4.88498e-12
1.77636e-12
5.28466e-11
4.61853e-11
6.43929e-11
2.66454e-11
-2.08722e-11
6.21725e-11
0
4.88498e-12
0
5.77316e-12
-4.08562e-11
-4.08562e-11
5.32907e-12
5.63993e-11
4.88498e-12
-4.08562e-11
-2.04281e-11
-8.88178e-12
-6.21725e-11
-5.77316e-12
-1.11022e-11
-4.08562e-11
-2.08722e-11
4.13003e-11
3.10862e-11
-1.19904e-11
2.08722e-11
-3.59712e-11
2.08722e-11
-7.23865e-11
6.21725e-11
5.10703e-11
-3.59712e-11
2.17604e-11
-3.59712e-11
6.26166e-11
6.79456e-11
6.17284e-11
6.08402e-11
4.88498e-12
9.32587e-12
1.74083e-10
2.57572e-11
5.32907e-12
2.17604e-11
9.76996e-12
3.9968e-12
3.95239e-11
-3.55271e-12
7.59393e-11
-3.55271e-12
1.20348e-10
3.95239e-11
3.9968e-12
3.95239e-11
-3.55271e-12
7.99361e-12
-1.77636e-12
-1.08802e-10
-1.82077e-11
1.77636e-12
-1.09246e-10
-4.17444e-11
-1.08802e-10
-3.55271e-12
-1.59872e-11
-8.88178e-13
-7.19425e-11
-1.27898e-10
-6.21725e-11
-7.06102e-11
-1.19016e-10
-5.63993e-11
-1.07914e-10
-7.32747e-11
0
-8.88178e-12
-1.06581e-11
-5.55112e-11
-5.06262e-11
-7.14984e-11
-4.44089e-12
8.88178e-12
-1.95399e-11
-1.06581e-11
-3.10862e-11
1.64313e-11
5.90639e-11
1.46549e-11
6.17284e-11
3.5083e-11
-5.32907e-11
5.37348e-11
-4.4853e-11
5.90639e-11
-4.21885e-11
-5.15143e-11
-1.59872e-11
5.72875e-11
7.59393e-11
3.4639e-11
-3.9968e-11
-2.88658e-11
-5.15143e-11
-1.59872e-11
1.42109e-11
-4.21885e-11
5.77316e-12
-8.88178e-12
6.21725e-12
3.37508e-11
0
4.88498e-12
0
5.77316e-12
2.22045e-11
5.77316e-12
2.57572e-11
-5.81757e-11
-2.13163e-11
-2.93099e-11
-2.04281e-11
6.88338e-11
6.75016e-11
2.08722e-11
3.10862e-11
8.43769e-12
8.88178e-13
-2.44249e-11
-2.44249e-11
-4.17444e-11
0
0
8.43769e-12
0
-2.22045e-11
5.9952e-11
3.10862e-12
1.64313e-10
1.11022e-11
1.73195e-10
4.70735e-11
-1.95399e-11
-8.88178e-13
-1.55431e-11
-1.28786e-11
3.19744e-11
8.88178e-12
1.47438e-10
1.46549e-11
1.53655e-10
4.52971e-11
-1.46549e-11
3.10862e-11
-1.46549e-11
2.62013e-11
4.44089e-12
-1.24345e-11
-2.04281e-11
-2.9754e-11
-1.08802e-10
-1.05249e-10
-4.17444e-11
-2.04281e-11
-3.55271e-12
-1.59872e-11
-5.32907e-12
-7.99361e-12
-4.57412e-11
-2.66454e-11
-1.12355e-10
-1.28342e-10
6.66134e-12
-1.5099e-11
-9.32587e-12
0
-6.30607e-11
-5.10703e-11
5.32907e-12
3.9968e-12
-5.32907e-12
-1.42109e-11
2.66454e-11
-5.19584e-11
-6.17284e-11
-5.24025e-11
-5.37348e-11
-4.79616e-11
2.4869e-11
-2.75335e-11
-3.37508e-11
2.26485e-11
-3.10862e-12
-7.99361e-12
-4.79616e-11
-4.13003e-11
2.75335e-11
2.13163e-11
-2.39808e-11
-8.88178e-12
-5.01821e-11
-6.43929e-11
-1.82077e-11
0
3.01981e-11
7.06102e-11
0
1.24345e-11
-5.19584e-11
1.77636e-11
-8.88178e-13
-7.77156e-11
-3.59712e-11
-4.08562e-11
1.24345e-11
0
-2.93099e-11
5.77316e-12
-1.73195e-11
-3.10862e-12
-8.88178e-12
1.28786e-11
3.5083e-11
6.75016e-11
2.30926e-11
-4.88498e-12
6.21725e-11
4.13003e-11
3.55271e-11
5.77316e-12
-8.43769e-12
7.28306e-11
1.82077e-11
0
1.46549e-11
2.22045e-11
6.08402e-11
3.81917e-11
5.77316e-11
3.86358e-11
4.66294e-11
4.70735e-11
9.32587e-12
-1.77636e-12
1.24345e-11
1.13243e-10
-3.55271e-12
3.55271e-12
3.90799e-11
2.9754e-11
2.57572e-11
-1.15463e-11
2.62013e-11
5.90639e-11
2.9754e-11
1.3145e-10
-2.22045e-12
-5.32907e-12
-9.50351e-11
-5.68434e-11
0
-1.09246e-10
-5.32907e-12
-6.66134e-12
-3.9968e-11
0
-1.15463e-11
-7.41629e-11
-1.1191e-10
-6.21725e-12
-1.46549e-11
-1.02141e-10
1.77636e-12
-5.32907e-11
-2.22045e-12
-1.46549e-11
0
-2.62013e-11
0
4.26326e-11
1.77636e-12
-4.57412e-11
-5.32907e-11
-4.52971e-11
-1.86517e-11
-9.76996e-12
-5.15143e-11
5.63993e-11
-4.17444e-11
-5.10703e-11
-5.10703e-11
-1.64313e-11
-3.06422e-11
5.10703e-11
-3.81917e-11
9.76996e-12
7.54952e-12
3.5083e-11
-1.64313e-11
2.93099e-11
0
0
1.24345e-11
-4.44089e-13
5.68434e-11
-6.26166e-11
0
-2.22045e-11
0
3.41949e-11
0
-3.64153e-11
2.08722e-11
0
4.44089e-11
-8.88178e-12
-6.79456e-11
-2.26485e-11
5.32907e-12
-5.68434e-11
-2.9754e-11
4.17444e-11
-1.24345e-11
5.28466e-11
-5.68434e-11
4.39648e-11
6.79456e-11
2.22045e-11
4.13003e-11
2.22045e-12
6.83897e-11
4.70735e-11
-2.08722e-11
-5.10703e-11
-4.21885e-11
-5.72875e-11
5.59552e-11
2.22045e-12
1.17684e-10
4.21885e-11
9.85878e-11
1.17684e-10
6.08402e-11
1.06137e-10
5.90639e-11
1.35891e-10
-1.19904e-11
4.44089e-13
1.23013e-10
2.04281e-11
7.01661e-11
1.11466e-10
3.10862e-11
1.59428e-10
3.77476e-11
1.79856e-10
-1.46549e-11
-1.0747e-10
-2.04281e-11
-5.15143e-11
-1.14575e-10
-1.05249e-10
-1.46549e-11
-2.04281e-11
-6.12843e-11
-3.28626e-11
-3.9968e-11
-1.77636e-10
-4.57412e-11
-4.88498e-12
-1.54099e-10
-1.83409e-10
-5.32907e-11
-1.5099e-11
-6.88338e-11
-4.21885e-11
-4.44089e-11
-7.72715e-11
-5.19584e-11
5.28466e-11
0
-1.42109e-11
2.70894e-11
-5.19584e-11
4.13003e-11
-3.5083e-11
-1.86517e-11
5.90639e-11
-2.62013e-11
-2.22045e-12
4.21885e-11
5.50671e-11
5.32907e-11
-7.99361e-12
5.9508e-11
2.26485e-11
2.75335e-11
5.06262e-11
3.24185e-11
-6.39488e-11
-3.10862e-11
-7.99361e-12
-2.66454e-11
0
6.66134e-12
6.08402e-11
-1.55431e-11
5.77316e-12
5.19584e-11
6.21725e-12
-7.63833e-11
2.26485e-11
5.77316e-12
-5.68434e-11
4.88498e-12
-1.9984e-11
-2.93099e-11
-5.15143e-11
-1.68754e-11
-1.33227e-11
-1.42109e-11
-4.30767e-11
-5.77316e-12
6.79456e-11
-2.57572e-11
-2.84217e-11
1.55431e-11
0
4.44089e-12
-4.44089e-13
1.55431e-11
-7.81597e-11
0
4.26326e-11
3.10862e-12
-3.68594e-11
4.35207e-11
8.12683e-11
5.68434e-11
6.61693e-11
5.32907e-11
1.72307e-10
1.11022e-11
-1.82077e-11
2.04281e-11
3.55271e-11
4.17444e-11
8.88178e-12
1.55431e-11
-9.76996e-12
6.57252e-11
1.85185e-10
-1.46549e-11
1.42109e-11
-1.86517e-11
7.59393e-11
1.07025e-10
1.03473e-10
-1.0969e-10
-1.73195e-11
-5.77316e-12
4.44089e-13
-1.06137e-10
-1.0969e-10
-2.93099e-11
-1.06581e-10
-2.08722e-11
9.32587e-11
-1.2923e-10
-3.33067e-11
-1.2923e-10
-2.22045e-12
-6.21725e-12
-1.29674e-10
8.43769e-11
-1.2701e-10
-1.07025e-10
-1.05693e-10
1.77636e-12
0
-1.22569e-10
-1.06581e-10
-9.32587e-12
-1.95399e-11
1.24789e-10
-1.77636e-12
-3.55271e-12
0
1.77636e-11
1.23901e-10
1.33227e-11
-1.10134e-10
-6.66134e-12
-3.10862e-12
0
-3.10862e-12
-7.10543e-12
-3.9968e-12
1.05693e-10
4.88498e-12
1.2701e-10
1.03917e-10
1.13243e-10
1.9984e-11
-1.08802e-10
-1.82077e-11
0
1.06581e-11
1.77636e-12
3.9968e-12
-1.42109e-11
1.0969e-10
-9.85878e-11
0
1.11022e-11
1.30118e-10
-4.44089e-12
-1.46549e-11
0
-1.55431e-11
0
-3.4639e-11
-1.04361e-10
8.88178e-13
3.10862e-12
4.44089e-13
1.27898e-10
-1.28342e-10
1.0747e-10
-1.28342e-10
1.82077e-11
-1.03473e-10
-1.82077e-11
2.44249e-11
-1.28342e-10
-1.26565e-10
1.24345e-11
1.26565e-10
-1.06581e-10
1.24789e-10
4.44089e-13
-7.01661e-11
4.44089e-13
4.44089e-13
1.07914e-10
1.2701e-10
-1.04361e-10
1.30118e-10
-1.06581e-10
1.27898e-10
1.0969e-10
-1.33227e-12
2.44249e-11
0
1.30118e-10
1.27454e-10
-1.03473e-10
-1.03473e-10
-1.10134e-10
-1.03473e-10
-1.03473e-10
-1.07914e-10
-1.03473e-10
-1.0747e-10
-1.03473e-10
1.04361e-10
-1.03473e-10
-1.01696e-10
-1.04361e-10
-1.03473e-10
-1.03473e-10
-1.05249e-10
-1.03473e-10
-1.20792e-10
-1.03473e-10
1.03917e-10
1.77636e-12
1.77636e-12
1.33227e-12
-1.95399e-11
-1.95399e-11
1.0969e-10
-1.95399e-11
1.0969e-10
-1.9984e-11
5.77316e-12
0
1.06581e-10
0
1.08802e-10
1.08802e-10
1.08358e-10
1.08802e-10
8.43769e-12
1.09246e-10
6.21725e-12
-1.77636e-12
-2.44249e-11
4.88498e-12
1.27898e-10
1.27898e-10
1.33227e-12
1.27898e-10
-1.86517e-11
1.27898e-10
4.44089e-13
0
-1.10134e-10
-1.15463e-11
-1.10134e-10
-1.10134e-10
0
-1.10134e-10
1.14575e-10
-1.14131e-10
-1.77636e-12
-1.37668e-11
2.26485e-11
-4.44089e-13
-1.10578e-10
-1.28786e-11
-1.22125e-10
-1.10578e-10
-8.83738e-11
-1.12799e-10
-1.77636e-12
0
-2.08722e-11
2.22045e-12
1.10578e-10
1.11022e-10
-8.88178e-13
1.10578e-10
4.44089e-13
1.14131e-10
1.77636e-12
1.23457e-10
1.03473e-10
1.07914e-10
1.11022e-10
1.28786e-11
1.23901e-10
1.11022e-10
-8.88178e-13
1.13687e-10
-1.08358e-10
1.0969e-10
1.26121e-10
1.1724e-10
1.33227e-12
1.33227e-12
1.33227e-12
1.33227e-12
-1.0747e-10
1.33227e-12
-1.10578e-10
-7.28306e-11
-1.95399e-11
-3.37508e-11
-2.04281e-11
-1.95399e-11
-3.24185e-11
-2.04281e-11
-3.64153e-11
-6.4837e-11
4.44089e-12
-8.88178e-13
-7.99361e-11
-2.44249e-11
-3.68594e-11
-3.73035e-11
1.77636e-12
-3.68594e-11
-5.55112e-11
-3.68594e-11
-1.05249e-10
5.68434e-11
4.44089e-12
3.9968e-12
4.44089e-12
4.44089e-12
1.90958e-11
8.88178e-12
-5.32907e-12
5.32907e-11
-1.20792e-10
-3.64153e-11
5.50671e-11
0
4.44089e-13
0
0
0
1.02141e-11
0
-7.54952e-12
-4.44089e-12
-4.88498e-12
2.35367e-11
-4.88498e-12
-4.44089e-12
1.37668e-11
-8.88178e-12
3.77476e-11
9.76996e-12
1.22125e-10
1.68754e-11
1.77636e-12
-2.62013e-11
1.68754e-11
1.68754e-11
0
1.68754e-11
4.52971e-11
1.68754e-11
1.15019e-10
1.64313e-11
0
-1.86517e-11
1.9984e-11
1.95399e-11
-5.01821e-11
1.86517e-11
-2.26485e-11
1.33227e-12
-5.32907e-12
1.86517e-11
3.10862e-12
3.55271e-12
-4.44089e-13
0
0
0
8.88178e-13
-4.44089e-13
-1.05693e-10
1.11466e-10
1.59872e-11
1.86517e-11
-4.88498e-12
-4.88498e-12
4.57412e-11
-3.9968e-12
5.77316e-12
-4.88498e-12
5.32907e-12
1.08802e-10
1.59872e-11
4.17444e-11
1.42109e-11
1.42109e-11
-4.88498e-12
1.42109e-11
-2.26485e-11
1.42109e-11
1.08358e-10
-3.59712e-11
2.17604e-11
-6.75016e-11
-3.59712e-11
-1.0969e-10
-3.59712e-11
-3.59712e-11
9.32587e-12
-3.59712e-11
4.88498e-12
-1.33227e-12
-2.30926e-11
-8.88178e-13
0
-1.54543e-10
-5.50671e-11
-4.35207e-11
1.46549e-11
-4.35207e-11
-1.09246e-10
-3.4639e-11
-1.90958e-11
2.75335e-11
-3.5083e-11
-1.90958e-11
3.55271e-12
-3.4639e-11
-3.15303e-11
-2.75335e-11
-1.24345e-11
-6.08402e-11
-1.86517e-11
0
-6.17284e-11
-1.86517e-11
-7.99361e-12
-1.86517e-11
0
-1.86517e-11
-1.33227e-11
3.4639e-11
-1.68754e-11
3.81917e-11
3.4639e-11
-1.68754e-11
-2.66454e-12
3.4639e-11
-1.42109e-11
6.30607e-11
-9.81437e-11
5.32907e-11
0
1.33227e-12
5.32907e-11
0
1.86517e-11
5.32907e-11
8.88178e-13
5.37348e-11
0
3.01981e-11
0
-7.19425e-11
3.68594e-11
0
3.06422e-11
3.68594e-11
4.61853e-11
-3.81917e-11
-8.88178e-12
0
0
-8.88178e-13
-4.44089e-13
0
-4.44089e-13
-4.44089e-13
-5.32907e-12
-3.55271e-11
4.44089e-13
-1.24345e-11
3.90799e-11
1.75415e-10
-1.86517e-11
3.90799e-11
-1.19904e-11
-1.86517e-11
1.0969e-10
2.13163e-11
1.1946e-10
-7.99361e-12
6.57252e-11
1.03473e-10
-7.99361e-12
6.57252e-11
2.62013e-11
-7.99361e-12
1.0747e-10
2.62013e-11
1.28342e-10
-1.68754e-11
3.9968e-12
-3.06422e-11
-1.68754e-11
3.9968e-12
-1.55431e-11
-1.24345e-11
-1.15463e-10
-1.24345e-11
-1.06581e-10
-2.22045e-11
4.44089e-12
3.10862e-12
-1.73195e-11
4.44089e-12
-3.55271e-11
-1.77636e-11
-1.0969e-10
-1.77636e-11
-4.44089e-13
-5.15143e-11
-2.22045e-11
-3.19744e-11
9.76996e-12
9.32587e-12
1.77636e-12
5.77316e-12
-7.10543e-12
5.77316e-12
1.05693e-10
-5.15143e-11
8.88178e-13
0
-5.72875e-11
0
1.86517e-11
-5.72875e-11
-2.22045e-12
-5.72875e-11
-1.05693e-10
6.57252e-11
2.93099e-11
1.06581e-11
-5.81757e-11
-8.88178e-12
-2.44249e-11
-2.79776e-11
-2.35367e-11
-5.81757e-11
-1.06137e-10
0
-4.88498e-12
-3.37508e-11
7.10543e-11
-4.88498e-12
-5.59552e-11
7.10543e-11
-3.01981e-11
7.10543e-11
-1.77636e-12
1.77636e-12
-6.43929e-11
0
6.52811e-11
-1.33227e-11
-3.55271e-11
-1.02141e-11
3.77476e-11
6.52811e-11
0
3.86358e-11
1.19904e-11
-2.13163e-11
-6.35048e-11
5.32907e-12
0
-3.28626e-11
-3.9968e-12
-6.35048e-11
8.88178e-13
-2.04281e-11
7.37188e-11
1.5854e-10
-1.33227e-12
3.01981e-11
7.23865e-11
4.39648e-11
1.05693e-10
-1.33227e-12
1.07025e-10
1.37668e-11
9.76996e-12
1.59428e-10
6.4837e-11
1.64313e-11
7.19425e-11
3.41949e-11
1.43885e-10
6.4837e-11
1.07025e-10
-3.81917e-11
-3.10862e-12
-6.75016e-11
-3.81917e-11
-1.77636e-12
-3.81917e-11
-3.81917e-11
-5.90639e-11
-4.44089e-12
4.44089e-12
-6.43929e-11
-6.66134e-11
0
-7.54952e-12
-6.4837e-11
-1.9984e-11
-6.43929e-11
0
-6.43929e-11
-1.22569e-10
-3.4639e-11
4.44089e-13
2.79776e-11
1.73195e-11
4.44089e-13
9.32587e-12
1.73195e-11
1.86517e-11
-6.08402e-11
-1.19904e-11
4.13003e-11
-4.44089e-13
-3.55271e-11
-5.68434e-11
-4.44089e-13
-3.55271e-12
0
-3.5083e-11
0
-8.88178e-13
2.57572e-11
-9.76996e-12
-2.84217e-11
-2.57572e-11
-4.44089e-11
-1.77636e-11
-2.57572e-11
8.88178e-12
1.86517e-11
-1.01696e-10
-2.22045e-11
5.37348e-11
2.84217e-11
1.86517e-11
1.86517e-11
-2.22045e-11
1.86517e-11
2.79776e-11
1.86517e-11
2.13163e-11
3.90799e-11
7.10543e-12
5.37348e-11
6.66134e-12
4.21885e-11
3.90799e-11
6.66134e-12
-9.32587e-12
5.77316e-12
-7.99361e-12
2.08722e-11
-6.88338e-11
6.21725e-12
2.17604e-11
-3.41949e-11
4.35207e-11
2.17604e-11
2.66454e-12
2.26485e-11
-2.53131e-11
4.88498e-12
1.11022e-10
1.15907e-10
3.81917e-11
1.11022e-10
5.32907e-12
3.81917e-11
1.4122e-10
3.81917e-11
1.23013e-10
2.35367e-11
1.87406e-10
1.03917e-10
2.17604e-11
1.87406e-10
4.44089e-13
2.17604e-11
1.0747e-10
2.17604e-11
1.3145e-10
-1.08358e-10
-5.72875e-11
-1.46549e-11
4.44089e-13
-1.45661e-10
-1.86517e-11
4.44089e-13
-4.88498e-12
4.44089e-13
-1.20792e-10
-1.44773e-10
1.90958e-11
-1.77636e-12
4.44089e-13
-1.12799e-10
-3.55271e-11
4.44089e-13
1.77636e-12
4.44089e-13
-1.77636e-12
-1.37668e-11
7.54952e-12
6.66134e-12
-6.35048e-11
3.86358e-11
5.32907e-12
-1.90958e-11