/*--------------------------------*- C++ -*----------------------------------*\
  =========                 |
  \\      /  F ield         | OpenFOAM: The Open Source CFD Toolbox
   \\    /   O peration     | Website:  https://openfoam.org
    \\  /    A nd           | Version:  10
     \\/     M anipulation  |
\*---------------------------------------------------------------------------*/
FoamFile
{
    format      ascii;
    class       volScalarField;
    location    "1.9";
    object      gradTx;
}
// * * * * * * * * * * * * * * * * * * * * * * * * * * * * * * * * * * * * * //

dimensions      [0 -1 0 1 0 0 0];

internalField   nonuniform List<scalar> 
3000
(
-496.229
-3.7569
-0.014295
-3.63802e-05
-6.97327e-08
-1.38556e-10
1.06137e-10
0
0
1.01696e-10
-496.229
-3.7569
-0.014295
-3.63803e-05
-6.97331e-08
-1.32339e-10
2.08722e-11
-1.33227e-11
-3.55271e-12
1.90958e-11
-496.229
-3.7569
-0.014295
-3.63803e-05
-6.97464e-08
-1.39444e-10
0
1.28342e-10
-4.44089e-13
-1.03473e-10
-496.229
-3.7569
-0.014295
-3.63802e-05
-6.96128e-08
-1.85185e-10
0
0
-1.09246e-10
7.10543e-12
-496.229
-3.7569
-0.014295
-3.63802e-05
-6.97358e-08
-1.19904e-10
1.29674e-10
1.0969e-10
-1.26565e-10
-1.05693e-10
-496.229
-3.7569
-0.014295
-3.63803e-05
-6.97109e-08
-1.39e-10
-2.17604e-11
1.28342e-10
2.17604e-11
-1.25233e-10
-496.229
-3.7569
-0.014295
-3.63802e-05
-6.96021e-08
-3.64153e-11
2.22045e-12
0
-1.26565e-10
1.42109e-11
-496.229
-3.7569
-0.014295
-3.63802e-05
-6.97424e-08
-1.54543e-10
1.06137e-10
1.55431e-11
-1.2168e-10
-5.32907e-12
-496.229
-3.7569
-0.014295
-3.63802e-05
-6.96341e-08
-1.84741e-10
-1.03473e-10
9.81437e-11
-2.44249e-11
-9.99201e-11
-496.229
-3.7569
-0.014295
-3.63802e-05
-6.96674e-08
-3.28626e-11
-6.21725e-12
-1.0747e-10
-9.90319e-11
1.09246e-10
-496.229
-3.7569
-0.014295
-3.63802e-05
-6.97677e-08
-1.36335e-10
1.27898e-10
3.9968e-12
-1.10134e-10
1.33227e-12
-496.229
-3.7569
-0.014295
-3.63803e-05
-6.97646e-08
-1.18572e-10
4.88498e-11
-1.86517e-11
1.19904e-11
-7.99361e-12
-496.229
-3.7569
-0.014295
-3.63803e-05
-6.97233e-08
-1.31894e-10
7.99361e-12
7.77156e-11
4.44089e-12
-4.35207e-11
-496.229
-3.7569
-0.014295
-3.63802e-05
-6.971e-08
-1.67866e-10
-1.64313e-11
0
-2.53131e-11
-3.5083e-11
-496.229
-3.7569
-0.014295
-3.63803e-05
-6.97793e-08
-9.59233e-11
7.41629e-11
4.44089e-13
-5.86198e-11
-2.66454e-12
-496.229
-3.7569
-0.014295
-3.63803e-05
-6.97513e-08
-1.32339e-10
7.99361e-12
7.77156e-11
4.44089e-12
-1.82077e-11
-496.229
-3.7569
-0.014295
-3.63802e-05
-6.9786e-08
-1.2168e-10
7.37188e-11
0
-5.86198e-11
-3.77476e-11
-496.229
-3.7569
-0.014295
-3.63802e-05
-6.9722e-08
-1.803e-10
9.32587e-12
4.44089e-13
-5.10703e-11
5.10703e-11
-496.229
-3.7569
-0.014295
-3.63803e-05
-6.97082e-08
-1.36335e-10
-1.24345e-11
-4.79616e-11
-6.4837e-11
3.55271e-11
-496.229
-3.7569
-0.014295
-3.63802e-05
-6.9706e-08
-1.4122e-10
1.05693e-10
0
-1.13243e-10
1.68754e-11
-496.229
-3.7569
-0.014295
-3.63803e-05
-6.97495e-08
-1.39444e-10
0
1.28342e-10
-4.44089e-13
-1.03473e-10
-496.229
-3.7569
-0.014295
-3.63803e-05
-6.97518e-08
-7.72715e-11
1.73195e-11
2.35367e-11
-5.77316e-12
1.77636e-12
-496.229
-3.7569
-0.014295
-3.63803e-05
-6.96798e-08
-1.78524e-10
-1.77636e-12
-1.55431e-11
-7.59393e-11
7.59393e-11
-496.229
-3.7569
-0.014295
-3.63803e-05
-6.97797e-08
-1.19016e-10
6.43929e-11
-3.41949e-11
-3.01981e-11
7.99361e-12
-496.229
-3.7569
-0.014295
-3.63803e-05
-6.97571e-08
-1.32339e-10
1.5099e-11
0
-1.5099e-11
6.88338e-11
-496.229
-3.7569
-0.014295
-3.63803e-05
-6.97487e-08
-1.92735e-10
7.63833e-11
-1.55431e-11
-1.95399e-11
7.90479e-11
-496.229
-3.7569
-0.014295
-3.63803e-05
-6.97575e-08
-1.24789e-10
3.41949e-11
0
-1.86517e-11
1.86517e-11
-496.229
-3.7569
-0.014295
-3.63802e-05
-6.97207e-08
-1.86073e-10
-1.33227e-11
0
-6.4837e-11
4.92939e-11
-496.229
-3.7569
-0.014295
-3.63803e-05
-6.97882e-08
-1.16795e-10
1.55431e-11
-1.55431e-11
4.13003e-11
3.37508e-11
-496.229
-3.7569
-0.014295
-3.63802e-05
-6.97304e-08
-1.38556e-10
3.55271e-12
2.44249e-11
2.08722e-11
-2.08722e-11
-496.229
-3.7569
-0.014295
-3.63802e-05
-6.97225e-08
-1.36335e-10
1.09246e-10
0
-1.09246e-10
7.10543e-12
-496.229
-3.7569
-0.014295
-3.63803e-05
-6.97438e-08
-9.59233e-11
1.73195e-11
0
-2.57572e-11
4.88498e-12
-496.229
-3.7569
-0.014295
-3.63803e-05
-6.97802e-08
-1.24345e-10
2.26485e-11
4.17444e-11
1.06581e-11
3.55271e-12
-496.229
-3.7569
-0.014295
-3.63803e-05
-6.97566e-08
-1.14575e-10
2.13163e-11
0
-3.81917e-11
-2.66454e-12
-496.229
-3.7569
-0.014295
-3.63802e-05
-6.97531e-08
-1.76303e-10
-4.88498e-11
4.26326e-11
6.79456e-11
-6.83897e-11
-496.229
-3.7569
-0.014295
-3.63802e-05
-6.97087e-08
-1.26121e-10
-1.33227e-11
-1.42109e-11
-6.39488e-11
-2.13163e-11
-496.229
-3.7569
-0.014295
-3.63802e-05
-6.97109e-08
-1.76303e-10
-6.12843e-11
4.26326e-11
6.79456e-11
-6.83897e-11
-496.229
-3.7569
-0.014295
-3.63803e-05
-6.98153e-08
-7.9492e-11
5.68434e-11
0
0
9.32587e-12
-496.229
-3.7569
-0.014295
-3.63802e-05
-6.97602e-08
-1.61648e-10
1.77636e-11
-1.86517e-11
-5.86198e-11
2.70894e-11
-496.229
-3.7569
-0.014295
-3.63803e-05
-6.97264e-08
-2.35367e-11
-1.42109e-11
-1.08358e-10
1.73195e-11
-1.82077e-11
-496.229
-3.7569
-0.014295
-3.63802e-05
-6.9774e-08
-1.16795e-10
1.29674e-10
1.05693e-10
-1.26565e-10
-1.11022e-10
-496.229
-3.7569
-0.014295
-3.63803e-05
-6.9809e-08
-7.72715e-11
6.43929e-11
-1.82077e-11
-4.88498e-11
2.26485e-11
-496.229
-3.7569
-0.014295
-3.63803e-05
-6.96891e-08
-1.16351e-10
-6.26166e-11
-1.55431e-11
-1.5099e-11
1.5099e-11
-496.229
-3.7569
-0.014295
-3.63803e-05
-6.97797e-08
-7.68274e-11
2.35367e-11
-7.68274e-11
1.9984e-11
6.43929e-11
-496.229
-3.7569
-0.014295
-3.63803e-05
-6.98077e-08
-1.32339e-10
5.63993e-11
0
-5.63993e-11
5.63993e-11
-496.229
-3.7569
-0.014295
-3.63803e-05
-6.97877e-08
-1.1724e-10
6.88338e-11
-1.5099e-11
-1.24345e-11
3.37508e-11
-496.229
-3.7569
-0.014295
-3.63803e-05
-6.97669e-08
-1.31894e-10
5.63993e-11
0
0
5.59552e-11
-496.229
-3.7569
-0.014295
-3.63803e-05
-6.97216e-08
-7.59393e-11
-2.04281e-11
0
-1.37668e-11
-4.30767e-11
-496.229
-3.7569
-0.014295
-3.63803e-05
-6.97797e-08
-1.16795e-10
7.23865e-11
-1.55431e-11
-1.55431e-11
7.72715e-11
-496.229
-3.7569
-0.014295
-3.63802e-05
-6.97709e-08
-1.39888e-10
1.73195e-11
0
7.10543e-12
2.44249e-11
-496.229
-3.7569
-0.014295
-3.63803e-05
-6.97464e-08
-1.15463e-11
-1.55431e-11
0
1.59872e-11
-1.25233e-10
-496.229
-3.7569
-0.014295
-3.63803e-05
-6.97526e-08
-1.32339e-10
7.99361e-12
7.77156e-11
-3.01981e-11
-8.88178e-12
-496.229
-3.7569
-0.014295
-3.63803e-05
-6.97491e-08
-1.32339e-10
5.9508e-11
0
-5.9508e-11
5.9508e-11
-496.229
-3.7569
-0.014295
-3.63803e-05
-6.97082e-08
-7.10543e-11
-1.33227e-11
-6.92779e-11
4.44089e-12
5.9952e-11
-496.229
-3.7569
-0.014295
-3.63803e-05
-6.97877e-08
-7.72715e-11
7.63833e-11
-8.88178e-13
-7.54952e-11
2.08722e-11
-496.229
-3.7569
-0.014295
-3.63803e-05
-6.98197e-08
-1.16795e-10
5.9952e-11
-1.55431e-11
-3.10862e-12
7.10543e-12
-496.229
-3.7569
-0.014295
-3.63803e-05
-6.9698e-08
-1.39888e-10
-3.4639e-11
5.59552e-11
2.22045e-11
-2.22045e-11
-496.229
-3.7569
-0.014295
-3.63803e-05
-6.97393e-08
-1.10578e-10
-4.57412e-11
0
2.04281e-11
-2.9754e-11
-496.229
-3.7569
-0.014295
-3.63803e-05
-6.96927e-08
-9.81437e-11
-2.22045e-11
3.5083e-11
-1.90958e-11
-2.62013e-11
-496.229
-3.7569
-0.014295
-3.63803e-05
-6.97118e-08
-1.02141e-11
1.68754e-11
4.44089e-13
8.88178e-13
-1.11022e-10
-496.229
-3.7569
-0.014295
-3.63802e-05
-6.97304e-08
-3.24185e-11
2.44249e-11
-9.90319e-11
-2.35367e-11
-1.77636e-12
-496.229
-3.7569
-0.014295
-3.63803e-05
-6.98162e-08
-8.08242e-11
6.4837e-11
0
-6.4837e-11
6.66134e-12
-496.229
-3.7569
-0.014295
-3.63803e-05
-6.97509e-08
-1.1724e-10
0
0
4.08562e-11
5.32907e-11
-496.229
-3.7569
-0.014295
-3.63803e-05
-6.97109e-08
-1.19016e-10
-4.61853e-11
4.26326e-11
5.28466e-11
-6.08402e-11
-496.229
-3.7569
-0.014295
-3.63803e-05
-6.97922e-08
-1.32783e-10
4.13003e-11
1.5099e-11
0
0
-496.229
-3.7569
-0.014295
-3.63803e-05
-6.97846e-08
-7.59393e-11
2.75335e-11
-2.22045e-11
-5.77316e-12
7.99361e-12
-496.229
-3.7569
-0.014295
-3.63803e-05
-6.97105e-08
-1.31894e-10
-4.13003e-11
0
4.13003e-11
1.5099e-11
-496.229
-3.7569
-0.014295
-3.63803e-05
-6.97646e-08
-1.25233e-10
-2.04281e-11
4.13003e-11
4.26326e-11
-4.26326e-11
-496.229
-3.7569
-0.014295
-3.63803e-05
-6.97105e-08
-7.59393e-11
-8.88178e-13
-4.08562e-11
-1.86517e-11
6.21725e-11
-496.229
-3.7569
-0.014295
-3.63802e-05
-6.97709e-08
-1.39888e-10
1.73195e-11
2.44249e-11
7.10543e-12
-7.10543e-12
-496.229
-3.7569
-0.014295
-3.63802e-05
-6.97633e-08
-7.14984e-11
1.27454e-10
-1.05693e-10
0
-5.32907e-12
-496.229
-3.7569
-0.014295
-3.63802e-05
-6.97238e-08
-1.25677e-10
9.76996e-12
-8.88178e-12
-8.88178e-13
9.76996e-12
-496.229
-3.7569
-0.014295
-3.63803e-05
-6.97225e-08
-1.67422e-10
-1.11022e-11
-1.86517e-11
-4.9738e-11
4.9738e-11
-496.229
-3.7569
-0.014295
-3.63803e-05
-6.98153e-08
-1.33671e-10
5.77316e-12
1.55431e-11
-5.77316e-12
5.06262e-11
-496.229
-3.7569
-0.014295
-3.63803e-05
-6.9694e-08
-1.79856e-10
-5.55112e-11
5.68434e-11
2.04281e-11
-5.81757e-11
-496.229
-3.7569
-0.014295
-3.63803e-05
-6.96936e-08
-1.75415e-10
-4.57412e-11
0
2.04281e-11
4.66294e-11
-496.229
-3.7569
-0.014295
-3.63803e-05
-6.97562e-08
-1.24789e-10
-2.93099e-11
3.95239e-11
2.08722e-11
-4.21885e-11
-496.229
-3.7569
-0.014295
-3.63803e-05
-6.97478e-08
-1.31006e-10
6.26166e-11
0
-4.75175e-11
0
-496.229
-3.7569
-0.014295
-3.63803e-05
-6.97562e-08
-8.39329e-11
-2.88658e-11
-4.13003e-11
-1.33227e-11
6.52811e-11
-496.229
-3.7569
-0.014295
-3.63802e-05
-6.97091e-08
-1.39e-10
-5.32907e-12
1.28786e-10
-8.88178e-12
-1.15907e-10
-496.229
-3.7569
-0.014295
-3.63803e-05
-6.96025e-08
-3.24185e-11
-1.03473e-10
0
-2.44249e-11
-9.99201e-11
-496.229
-3.7569
-0.014295
-3.63803e-05
-6.97389e-08
-8.08242e-11
-1.24345e-11
-4.84057e-11
-6.43929e-11
3.55271e-11
-496.229
-3.7569
-0.014295
-3.63803e-05
-6.97509e-08
-1.1724e-10
1.55431e-11
-1.55431e-11
-1.5099e-11
3.41949e-11
-496.229
-3.7569
-0.014295
-3.63802e-05
-6.97797e-08
-1.34115e-10
6.43929e-11
-6.08402e-11
-2.17604e-11
0
-496.229
-3.7569
-0.014295
-3.63803e-05
-6.97877e-08
-7.72715e-11
5.63993e-11
-8.88178e-13
-5.55112e-11
-3.9968e-11
-496.229
-3.7569
-0.014295
-3.63803e-05
-6.96927e-08
-7.59393e-11
-1.33227e-11
-4.08562e-11
-5.77316e-12
2.66454e-11
-496.229
-3.7569
-0.014295
-3.63803e-05
-6.97735e-08
-1.40332e-10
2.22045e-11
1.5099e-11
0
-1.5099e-11
-496.229
-3.7569
-0.014295
-3.63803e-05
-6.97287e-08
-9.72555e-11
-2.08722e-11
1.42109e-11
6.39488e-11
-5.55112e-11
-496.229
-3.7569
-0.014295
-3.63803e-05
-6.97735e-08
-1.16795e-10
5.32907e-11
2.75335e-11
-6.88338e-11
-2.70894e-11
-496.229
-3.7569
-0.014295
-3.63803e-05
-6.97238e-08
-1.06581e-11
-4.44089e-13
-1.05693e-10
-5.77316e-12
-2.26485e-11
-496.229
-3.7569
-0.014295
-3.63802e-05
-6.96674e-08
-1.38556e-10
4.44089e-13
-1.33227e-12
-1.06137e-10
1.33227e-12
-496.229
-3.7569
-0.014295
-3.63802e-05
-6.97375e-08
-1.39444e-10
0
-3.10862e-12
-3.55271e-12
1.3145e-10
-496.229
-3.7569
-0.014295
-3.63802e-05
-6.97709e-08
-1.36335e-10
0
2.08722e-11
0
-2.08722e-11
-496.229
-3.7569
-0.014295
-3.63802e-05
-6.97367e-08
-7.19425e-11
8.43769e-12
-1.05249e-10
1.19904e-11
0
-496.229
-3.7569
-0.014295
-3.63802e-05
-6.97353e-08
-1.39444e-10
0
2.44249e-11
0
-2.44249e-11
-496.229
-3.7569
-0.014295
-3.63802e-05
-6.973e-08
-1.53655e-10
1.73195e-11
3.10862e-12
1.33227e-12
1.42109e-11
-496.229
-3.7569
-0.014295
-3.63802e-05
-6.97522e-08
-1.38112e-10
5.77316e-12
-5.77316e-12
-2.4869e-11
-1.82077e-11
-496.229
-3.7569
-0.014295
-3.63802e-05
-6.97384e-08
-1.46549e-10
-4.44089e-12
7.54952e-12
-9.32587e-12
-1.24345e-11
-496.229
-3.7569
-0.014295
-3.63802e-05
-6.97629e-08
-1.53655e-10
1.0969e-10
2.30926e-11
-1.10134e-10
1.06137e-10
-496.229
-3.7569
-0.0142951
-3.63803e-05
-6.96261e-08
-1.30118e-10
-1.06581e-10
1.07914e-10
1.0747e-10
-1.07025e-10
1.77636e-12
2.22045e-12
-2.66454e-12
3.9968e-12
-3.9968e-12
4.44089e-13
0
-2.22045e-12
5.77316e-12
-3.9968e-12
-6.21725e-12
-4.44089e-13
9.32587e-12
4.44089e-13
1.06137e-10
-7.99361e-12
-1.0747e-10
9.32587e-12
7.10543e-11
-1.33227e-12
-2.66454e-12
-3.10862e-12
1.77636e-12
0
1.02141e-10
-8.43769e-12
-1.05249e-10
1.15463e-11
-1.77636e-12
-1.33227e-12
3.55271e-12
1.01696e-10
0
0
-2.13163e-11
2.22045e-12
2.08722e-11
-1.03473e-10
-4.88498e-12
0
1.13687e-10
0
-9.76996e-11
1.08802e-10
4.44089e-12
-1.1191e-10
-1.33227e-12
4.44089e-12
1.03473e-10
-8.88178e-13
-1.77636e-12
1.2701e-10
8.88178e-13
-1.08802e-10
1.02141e-10
-8.43769e-12
3.9968e-12
1.11022e-11
-1.10578e-10
-1.33227e-12
1.46549e-11
-1.08358e-10
8.88178e-13
0
4.44089e-12
-3.10862e-12
-1.33227e-12
5.32907e-12
1.03473e-10
-1.77636e-12
-4.88498e-12
-7.54952e-12
1.25233e-10
1.19904e-11
1.33227e-12
-2.04281e-11
-1.06137e-10
0
0
4.88498e-12
1.28342e-10
5.32907e-12
4.44089e-13
1.07914e-10
-1.77636e-12
-1.02141e-11
-1.03473e-10
-1.01696e-10
1.03473e-10
3.55271e-12
1.06581e-10
0
-8.88178e-13
0
4.44089e-13
-2.22045e-12
1.77636e-12
-9.72555e-11
-2.66454e-12
9.99201e-11
-6.21725e-12
-4.44089e-13
1.13687e-10
4.44089e-13
1.77636e-12
-1.90958e-11
-1.0747e-10
2.04281e-11
7.10543e-11
-1.33227e-12
-9.32587e-12
3.95239e-11
1.33227e-11
1.33227e-11
-7.10543e-12
7.54952e-12
-1.42109e-11
1.37668e-11
1.02141e-11
-7.32747e-11
-6.88338e-11
2.57572e-11
7.10543e-12
0
7.19425e-11
1.64313e-11
-1.95399e-11
-6.79456e-11
1.90958e-11
7.10543e-11
-3.4639e-11
3.33067e-11
-8.88178e-13
3.10862e-12
6.4837e-11
2.93099e-11
0
-2.08722e-11
-2.44249e-11
1.28786e-11
3.90799e-11
2.62013e-11
-2.75335e-11
-4.57412e-11
5.06262e-11
1.42109e-11
-1.90958e-11
2.35367e-11
1.90958e-11
-8.43769e-12
-3.19744e-11
4.44089e-13
3.01981e-11
1.86517e-11
1.24345e-11
-3.33067e-11
-1.95399e-11
-4.52971e-11
1.90958e-11
5.90639e-11
-1.55431e-11
2.57572e-11
4.52971e-11
5.32907e-12
3.33067e-11
-1.9984e-11
0
2.17604e-11
-3.86358e-11
-7.54952e-12
-7.99361e-12
-2.70894e-11
6.26166e-11
2.70894e-11
1.33227e-12
-5.86198e-11
-5.32907e-12
0
0
6.03961e-11
3.64153e-11
4.44089e-13
3.01981e-11
1.86517e-11
1.24345e-11
-3.33067e-11
-8.88178e-13
-4.4853e-11
0
7.86038e-11
5.77316e-12
1.14131e-10
-1.02141e-11
-1.0747e-10
8.88178e-12
-1.15463e-11
1.10134e-10
1.15463e-11
-5.32907e-12
1.06581e-10
-2.66454e-12
-3.10862e-12
1.77636e-12
1.10134e-10
-4.44089e-12
-7.99361e-12
2.22045e-12
-9.99201e-11
1.04805e-10
-2.66454e-12
-3.24185e-11
-1.90958e-11
-2.84217e-11
1.86517e-11
7.14984e-11
-3.33067e-11
-1.95399e-11
-4.52971e-11
1.90958e-11
4.21885e-11
4.57412e-11
-6.88338e-11
2.17604e-11
2.57572e-11
-3.24185e-11
-2.04281e-11
3.95239e-11
5.32907e-11
-3.90799e-11
8.88178e-12
3.81917e-11
3.86358e-11
-2.08722e-11
2.70894e-11
8.43769e-12
-1.33227e-12
0
-2.13163e-11
-4.61853e-11
-4.35207e-11
6.70575e-11
-5.37348e-11
0
0
-5.15143e-11
5.10703e-11
4.44089e-13
0
0
-5.15143e-11
-4.92939e-11
-3.55271e-11
6.39488e-11
0
-3.77476e-11
-3.55271e-11
4.4853e-11
0
-3.55271e-11
3.4639e-11
9.32587e-12
0
0
-1.90958e-11
9.76996e-12
5.10703e-11
8.88178e-13
-4.26326e-11
-1.90958e-11
4.44089e-11
5.63993e-11
-5.10703e-11
1.02141e-11
5.15143e-11
-5.41789e-11
-1.28786e-11
1.46549e-11
2.66454e-11
3.59712e-11
-4.44089e-12
1.59872e-11
0
-7.19425e-11
-1.90958e-11
0
2.17604e-11
3.37508e-11
3.55271e-11
0
-3.10862e-12
-2.44249e-11
0
0
2.08722e-11
3.55271e-12
-2.44249e-11
0
0
2.08722e-11
3.55271e-12
3.55271e-12
-5.77316e-12
8.88178e-13
0
0
1.08802e-10
-4.44089e-13
-1.03473e-10
-4.88498e-12
0
-3.4639e-11
-2.35367e-11
-8.88178e-13
3.10862e-12
7.99361e-12
2.93099e-11
7.28306e-11
-6.43929e-11
-1.33227e-12
5.68434e-11
-9.76996e-12
-1.28786e-11
2.66454e-11
2.70894e-11
8.43769e-12
-6.66134e-12
0
1.37668e-11
1.02141e-11
-2.13163e-11
1.24345e-11
-1.15463e-11
1.73195e-11
1.19904e-11
-4.44089e-11
1.11022e-11
0
3.9968e-12
5.24025e-11
-4.13003e-11
-6.83897e-11
0
6.4837e-11
5.68434e-11
-6.4837e-11
-6.4837e-11
4.44089e-13
7.54952e-12
7.32747e-11
0
0
-1.11022e-11
5.59552e-11
5.15143e-11
3.10862e-12
3.9968e-12
-4.44089e-13
-1.02141e-11
1.37668e-11
1.24345e-11
-3.55271e-12
0
-1.77636e-11
5.68434e-11
9.76996e-12
-4.92939e-11
4.44089e-13
5.68434e-11
0
-6.4837e-11
-2.17604e-11
6.66134e-12
8.88178e-13
-1.64313e-11
-1.42109e-11
-4.9738e-11
-1.46549e-11
-4.44089e-13
1.5099e-11
6.61693e-11
2.17604e-11
-3.10862e-12
4.13003e-11
0
-1.33227e-11
2.66454e-11
-5.68434e-11
1.42109e-11
3.24185e-11
-3.4639e-11
3.55271e-12
0
-8.88178e-12
2.08722e-11
9.76996e-12
1.03917e-10
-4.44089e-13
-1.04361e-10
1.06137e-10
-2.13163e-11
-3.55271e-12
5.77316e-12
2.35367e-11
0
1.02585e-10
1.00364e-10
-1.02585e-10
-1.00364e-10
1.03473e-10
-8.88178e-13
6.26166e-11
1.86517e-11
-5.32907e-11
0
5.50671e-11
-2.79776e-11
0
-3.55271e-11
-3.64153e-11
2.70894e-11
8.08242e-11
2.75335e-11
-1.37668e-11
-2.75335e-11
-5.15143e-11
1.24345e-11
-7.10543e-12
3.86358e-11
7.54952e-12
-5.15143e-11
-3.5083e-11
1.64313e-11
6.83897e-11
-5.81757e-11
-6.79456e-11
-1.55431e-11
0
3.77476e-11
6.21725e-12
-3.81917e-11
6.70575e-11
0
0
0
-1.11022e-11
1.11022e-11
-5.68434e-11
0
5.68434e-11
-1.11022e-11
-3.15303e-11
4.17444e-11
5.37348e-11
0
-2.26485e-11
-3.9968e-12
-2.13163e-11
-4.75175e-11
4.17444e-11
9.76996e-12
1.59872e-11
0
0
-4.08562e-11
-5.68434e-11
5.68434e-11
4.08562e-11
0
-4.08562e-11
-3.81917e-11
1.55431e-11
0
5.68434e-11
5.15143e-11
-5.9508e-11
-1.28786e-11
6.21725e-11
3.55271e-12
-1.11022e-11
1.82077e-11
-1.95399e-11
0
-3.68594e-11
0
6.70575e-11
-4.08562e-11
1.06581e-11
0
0
1.82077e-11
-4.88498e-12
-7.54952e-12
0
0
1.11022e-10
2.22045e-12
-1.05693e-10
0
-7.54952e-12
1.77636e-12
-1.77636e-12
1.2701e-10
-1.02141e-11
-1.09246e-10
1.17684e-10
-8.43769e-12
0
1.11022e-11
-1.10578e-10
1.05693e-10
4.30767e-11
1.02141e-11
-2.66454e-11
4.44089e-13
2.79776e-11
-5.15143e-11
0
4.9738e-11
-1.90958e-11
1.77636e-12
7.54952e-12
4.44089e-13
-4.44089e-13
-5.19584e-11
6.17284e-11
4.88498e-12
1.11022e-11
-5.77316e-12
-3.55271e-12
3.5083e-11
-1.77636e-12
-3.68594e-11
-6.66134e-11
-1.59872e-11
7.41629e-11
2.88658e-11
-1.42109e-11
3.06422e-11
-3.10862e-11
-2.66454e-12
6.66134e-11
-2.22045e-12
2.66454e-12
-3.06422e-11
-5.4623e-11
2.44249e-11
1.82077e-11
0
0
9.76996e-12
-4.44089e-12
7.28306e-11
2.4869e-11
-3.81917e-11
-4.17444e-11
-3.55271e-11
-2.62013e-11
4.39648e-11
3.4639e-11
2.4869e-11
1.59872e-11
3.06422e-11
3.55271e-12
1.15463e-11
-6.03961e-11
-3.9968e-12
1.86517e-11
0
2.22045e-11
-3.55271e-12
4.39648e-11
9.76996e-12
-2.30926e-11
-9.32587e-12
-4.17444e-11
6.26166e-11
6.26166e-11
-3.9968e-12
-1.77636e-12
4.44089e-13
5.68434e-11
-2.66454e-12
-2.04281e-11
-6.21725e-12
-3.59712e-11
3.81917e-11
2.70894e-11
0
-8.43769e-12
-3.10862e-12
5.32907e-12
1.13243e-10
-1.55431e-11
0
-4.88498e-12
-1.30118e-10
1.37668e-11
0
-1.37668e-11
1.68754e-11
2.26485e-11
5.77316e-12
8.88178e-13
1.08802e-10
1.02141e-10
-1.18572e-10
-1.03473e-10
1.11022e-11
-3.10862e-12
1.06581e-10
6.66134e-11
-1.86517e-11
-1.59872e-11
1.90958e-11
2.79776e-11
-5.15143e-11
-1.90958e-11
4.9738e-11
0
-3.4639e-11
1.59872e-11
-3.4639e-11
-1.68754e-11
4.21885e-11
-8.88178e-13
0
9.76996e-12
-3.55271e-12
1.15463e-11
-5.68434e-11
-6.03961e-11
4.92939e-11
3.90799e-11
9.76996e-12
8.88178e-12
-1.86517e-11
-5.68434e-11
-3.90799e-11
-4.44089e-13
4.92939e-11
-3.19744e-11
4.44089e-11
3.55271e-12
-1.68754e-11
4.92939e-11
2.9754e-11
-2.13163e-11
-4.75175e-11
-2.22045e-11
-9.32587e-12
4.44089e-13
-2.66454e-12
8.88178e-12
-1.68754e-11
-4.52971e-11
1.28786e-11
7.99361e-12
8.88178e-12
7.06102e-11
3.10862e-11
-1.90958e-11
-7.99361e-12
8.88178e-12
3.4639e-11
-4.52971e-11
-6.21725e-12
1.59872e-11
-8.88178e-13
1.95399e-11
3.90799e-11
-1.37668e-11
8.88178e-12
0
-8.88178e-12
-2.9754e-11
5.90639e-11
6.26166e-11
-3.9968e-12
-1.77636e-12
4.88498e-12
4.08562e-11
-3.5083e-11
-2.62013e-11
-8.43769e-12
2.08722e-11
2.04281e-11
-5.59552e-11
-3.9968e-12
4.08562e-11
-5.10703e-11
-8.88178e-13
7.54952e-12
0
-2.08722e-11
-2.04281e-11
2.04281e-11
1.33227e-11
0
1.13243e-10
-2.66454e-12
-1.13687e-10
1.00808e-10
-1.77636e-11
-9.68114e-11
1.26565e-10
-5.32907e-12
-1.02141e-10
0
-1.77636e-12
1.01696e-10
-4.88498e-12
7.10543e-12
-6.92779e-11
-1.77636e-12
7.41629e-11
-1.02141e-11
0
-3.5083e-11
5.77316e-12
1.15463e-11
-1.55431e-11
0
5.10703e-11
0
3.01981e-11
1.06581e-11
-5.19584e-11
-3.9968e-12
3.64153e-11
4.44089e-13
3.5083e-11
6.66134e-12
0
8.88178e-13
-1.42109e-11
-6.61693e-11
0
0
4.08562e-11
3.19744e-11
2.22045e-11
8.88178e-12
-5.55112e-11
-1.02141e-11
6.52811e-11
3.15303e-11
1.42109e-11
-1.06581e-11
-5.77316e-12
3.95239e-11
4.35207e-11
-1.64313e-11
-4.88498e-12
1.55431e-11
-4.35207e-11
-5.28466e-11
0
4.44089e-11
-2.04281e-11
-6.39488e-11
8.88178e-13
8.88178e-12
4.44089e-13
-1.02141e-11
-4.88498e-12
5.32907e-11
5.06262e-11
1.19904e-11
-1.46549e-11
-5.77316e-12
2.66454e-11
5.59552e-11
-3.95239e-11
-1.77636e-11
5.4623e-11
-3.68594e-11
1.19904e-11
0
-2.9754e-11
1.33227e-11
5.63993e-11
-1.59872e-11
-1.9984e-11
1.64313e-11
3.90799e-11
-3.55271e-11
-4.75175e-11
-8.43769e-12
-2.08722e-11
3.01981e-11
-3.9968e-12
1.18128e-10
0
-3.59712e-11
1.30118e-10
-7.4607e-11
0
-2.22045e-12
0
-1.9984e-11
1.28342e-10
5.32907e-12
-1.08802e-10
1.08802e-10
1.06581e-10
-1.22569e-10
-1.03473e-10
1.06581e-11
-3.10862e-12
3.10862e-12
7.77156e-11
-4.44089e-13
-5.28466e-11
1.42109e-11
5.4623e-11
-2.35367e-11
-1.86517e-11
-3.59712e-11
-1.68754e-11
6.35048e-11
7.10543e-12
8.88178e-13
6.39488e-11
0
-7.19425e-11
-2.04281e-11
6.39488e-11
-5.77316e-12
-3.06422e-11
7.99361e-12
-4.26326e-11
-7.99361e-12
7.77156e-11
6.61693e-11
-1.33227e-11
3.9968e-12
-5.68434e-11
-2.08722e-11
-4.44089e-13
8.43769e-12
6.70575e-11
-7.54952e-12
2.66454e-12
6.83897e-11
-1.5099e-11
-8.88178e-12
1.77636e-12
0
0
-5.19584e-11
1.46549e-11
-2.22045e-12
-3.81917e-11
2.22045e-12
4.35207e-11
8.43769e-12
-4.84057e-11
1.19904e-11
6.08402e-11
1.28786e-11
1.55431e-11
5.9952e-11
3.9968e-12
-5.9952e-11
1.77636e-12
7.19425e-11
-7.77156e-11
0
3.73035e-11
-5.68434e-11
-7.77156e-11
1.02141e-11
0
4.88498e-12
1.33227e-11
1.73195e-11
6.21725e-11
-8.43769e-12
-3.59712e-11
1.59872e-11
7.19425e-11
4.9738e-11
3.10862e-12
-4.88498e-11
-7.59393e-11
5.68434e-11
4.26326e-11
3.9968e-12
-4.26326e-11
-7.54952e-12
5.77316e-12
2.26485e-11
-1.5099e-11
2.22045e-12
1.19016e-10
-2.4869e-11
-1.27898e-10
0
1.86517e-11
3.55271e-12
0
1.07914e-10
7.99361e-12
0
9.76996e-11
-2.22045e-12
2.22045e-12
-9.72555e-11
-2.66454e-12
9.99201e-11
1.06581e-10
-1.08358e-10
-1.13243e-10
1.03473e-10
1.16351e-10
-1.02141e-10
-1.08802e-10
-2.04281e-11
0
1.37668e-11
1.1724e-10
0
-1.1724e-10
0
1.28342e-10
1.19904e-10
-1.24789e-10
-6.21725e-12
0
-1.13687e-10
1.33227e-12
4.44089e-13
-7.99361e-12
-2.08722e-11
9.32587e-12
1.15463e-11
-2.17604e-11
1.13687e-10
1.77636e-11
-1.25233e-10
1.1724e-10
2.08722e-11
7.10543e-12
-3.9968e-12
-1.05249e-10
9.99201e-11
-1.86517e-11
0
0
-9.28146e-11
-4.44089e-13
1.12799e-10
1.33227e-12
0
1.08358e-10
-1.33227e-12
-1.05693e-10
-1.08802e-10
-1.90958e-11
-2.66454e-12
1.28342e-10
2.22045e-11
8.88178e-13
-1.9984e-11
0
1.5099e-11
-1.28342e-10
1.10134e-10
1.29674e-10
-1.10578e-10
0
1.18128e-10
0
0
9.05942e-11
-1.06581e-10
-6.9722e-11
-1.77636e-12
-2.04281e-11
1.77636e-12
-1.90958e-11
2.22045e-12
0
-1.08802e-10
2.44249e-11
-2.13163e-11
0
0
-2.08722e-11
1.27898e-10
-1.77636e-12
-8.88178e-13
-1.77636e-12
1.07025e-10
-1.04805e-10
-1.06137e-10
8.88178e-13
1.05693e-10
1.06581e-10
8.88178e-13
-5.77316e-12
2.22045e-12
0
-2.22045e-12
1.77636e-12
0
4.44089e-13
0
-1.06137e-10
-1.03917e-10
-7.10543e-11
-3.9968e-12
-4.44089e-13
4.44089e-12
-2.22045e-12
0
4.44089e-13
0
1.05249e-10
1.03473e-10
5.32907e-12
8.88178e-13
-1.77636e-12
-8.88178e-13
0
0
-1.55431e-11
8.88178e-13
1.18128e-10
1.03473e-10
4.88498e-12
-4.88498e-12
-2.13163e-11
-1.64313e-11
1.2701e-10
4.44089e-13
4.44089e-13
0
4.44089e-13
1.2923e-10
4.88498e-12
1.33227e-12
0
1.0747e-10
0
0
-1.15463e-10
0
1.16351e-10
1.33227e-12
-1.90958e-11
1.77636e-12
1.31006e-10
1.07025e-10
0
0
-1.95399e-11
0
2.04281e-11
1.33227e-12
-1.05249e-10
-1.02141e-11
0
8.43769e-12
1.10578e-10
0
-1.33227e-12
-3.9968e-12
4.44089e-13
1.13687e-10
-4.44089e-13
1.46549e-11
-1.33227e-12
9.4591e-11
-1.15463e-11
-9.85878e-11
1.55431e-11
-1.77636e-12
1.06137e-10
1.1191e-10
-1.26121e-10
-7.99361e-12
1.31006e-10
1.16795e-10
0
0
-4.44089e-13
0
1.33227e-12
1.33227e-12
-3.9968e-12
-4.44089e-13
6.21725e-12
4.44089e-13
0
0
-1.0969e-10
0
-4.44089e-13
-1.10578e-10
-7.10543e-11
-4.44089e-12
0
4.44089e-12
-2.22045e-12
0
4.44089e-13
0
1.05249e-10
1.03473e-10
-9.76996e-12
3.33067e-11
0
1.82077e-11
-1.33227e-11
0
-4.88498e-12
-4.35207e-11
1.44773e-10
1.72307e-10
-7.9492e-11
-2.75335e-11
4.26326e-11
-8.43769e-12
3.64153e-11
-4.44089e-13
-5.59552e-11
0
5.59552e-11
3.5083e-11
2.44249e-11
-1.90958e-11
0
1.90958e-11
0
4.88498e-12
-2.84217e-11
4.44089e-13
2.88658e-11
-2.66454e-12
-2.39808e-11
8.88178e-12
-1.28786e-11
-8.43769e-12
3.64153e-11
-4.44089e-13
-4.57412e-11
0
3.81917e-11
2.84217e-11
-1.86517e-11
1.02141e-11
-4.44089e-13
-9.76996e-12
1.95399e-11
-8.88178e-13
-4.44089e-12
1.86517e-11
1.15019e-10
1.0969e-10
1.64313e-11
-3.5083e-11
3.55271e-12
3.5083e-11
1.86517e-11
0
0
0
1.07025e-10
1.25677e-10
-1.42109e-11
-2.44249e-11
1.90958e-11
2.84217e-11
-5.10703e-11
0
2.22045e-11
1.33227e-12
1.31894e-10
1.03917e-10
-1.95399e-11
-5.06262e-11
0
3.19744e-11
1.95399e-11
-8.88178e-13
1.33227e-12
0
0
2.04281e-11
-1.0747e-10
-1.17684e-10
-1.77636e-12
4.44089e-12
0
0
-1.73195e-11
0
1.31894e-10
1.14131e-10
-1.26121e-10
2.66454e-12
2.13163e-11
1.0747e-10
0
-1.10578e-10
-1.37668e-11
8.88178e-13
1.18128e-10
1.05249e-10
0
-2.88658e-11
-3.59712e-11
6.52811e-11
-4.44089e-13
-3.59712e-11
3.15303e-11
0
1.14131e-10
1.46105e-10
0
3.55271e-12
4.35207e-11
-4.52971e-11
-5.4623e-11
0
5.63993e-11
0
-5.77316e-12
4.04121e-11
4.66294e-11
3.33067e-11
-5.15143e-11
1.82077e-11
3.81917e-11
-5.24025e-11
-3.9968e-12
7.99361e-12
1.34115e-10
1.6076e-10
0
6.43929e-11
0
-6.43929e-11
0
0
6.43929e-11
0
-1.95399e-11
4.57412e-11
0
3.68594e-11
0
-3.68594e-11
0
0
-1.46549e-11
3.64153e-11
4.9738e-11
-4.44089e-13
0
1.19904e-11
5.37348e-11
-6.57252e-11
-3.4639e-11
5.37348e-11
4.70735e-11
-4.44089e-13
-1.9984e-11
-8.43769e-12
-2.22045e-11
-6.4837e-11
3.64153e-11
3.4639e-11
-6.21725e-12
3.68594e-11
4.44089e-13
-3.90799e-11
-4.44089e-12
2.93099e-11
-1.90958e-11
1.11022e-11
5.32907e-11
-6.43929e-11
-3.4639e-11
5.37348e-11
4.17444e-11
-3.5083e-11
-1.55431e-11
2.70894e-11
0
1.22569e-10
-2.08722e-11
-1.01696e-10
0
-2.08722e-11
1.22569e-10
0
5.77316e-12
1.28342e-10
-1.68754e-11
-4.44089e-12
2.13163e-11
-1.68754e-11
0
2.13163e-11
1.06581e-10
0
0
1.06581e-10
-1.5099e-11
-1.90958e-11
0
1.90958e-11
0
4.88498e-12
7.10543e-12
0
9.32587e-12
1.28786e-11
-4.88498e-12
1.9984e-11
0
-1.55431e-11
-1.86517e-11
0
3.28626e-11
0
1.08802e-10
1.22569e-10
-3.81917e-11
-4.44089e-13
3.10862e-11
6.08402e-11
-6.66134e-12
0
-2.66454e-12
0
1.23013e-10
1.13243e-10
-1.64313e-11
7.23865e-11
-5.77316e-11
-1.46549e-11
5.68434e-11
-5.68434e-11
1.15463e-11
0
5.32907e-12
7.41629e-11
-1.77636e-12
-5.4623e-11
-5.68434e-11
4.04121e-11
2.70894e-11
-1.90958e-11
-4.44089e-13
-3.01981e-11
3.86358e-11
6.57252e-11
-4.44089e-12
3.73035e-11
1.95399e-11
1.33227e-11
-7.01661e-11
1.86517e-11
3.81917e-11
-8.88178e-13
3.5083e-11
8.88178e-13
-2.13163e-11
-5.68434e-11
7.32747e-11
2.79776e-11
-7.37188e-11
-1.59872e-11
7.19425e-11
4.52971e-11
1.33227e-12
0
3.24185e-11
-2.22045e-11
-5.68434e-11
4.04121e-11
-7.99361e-12
-1.86517e-11
3.41949e-11
-3.01981e-11
3.86358e-11
6.57252e-11
-1.05249e-10
1.23013e-10
-1.77636e-12
-1.01696e-10
0
-1.77636e-12
1.05693e-10
0
2.22045e-12
1.07914e-10
-1.01696e-10
8.88178e-13
-1.77636e-12
-8.88178e-13
0
0
1.77636e-12
0
1.01696e-10
1.03473e-10
3.64153e-11
-2.93099e-11
-3.59712e-11
6.52811e-11
-4.44089e-13
-3.59712e-11
-1.9984e-11
3.37508e-11
1.65201e-10
1.12799e-10
0
6.57252e-11
5.63993e-11
-6.52811e-11
-1.24345e-11
0
2.13163e-11
0
-2.08722e-11
4.57412e-11
6.52811e-11
3.37508e-11
-1.90958e-11
3.73035e-11
-7.54952e-12
-1.95399e-11
-1.02141e-11
-4.35207e-11
1.34115e-10
1.6076e-10
-4.08562e-11
-1.06581e-11
0
-3.01981e-11
4.08562e-11
0
-1.06581e-11
0
1.46549e-11
4.57412e-11
-7.10543e-12
-2.13163e-11
-3.4639e-11
2.08722e-11
0
0
1.73195e-11
0
2.30926e-11
3.9968e-11
5.37348e-11
3.90799e-11
-3.41949e-11
-3.9968e-11
0
0
3.95239e-11
4.44089e-13
7.54952e-12
4.75175e-11
1.19904e-11
-7.10543e-12
-3.55271e-11
9.32587e-12
3.33067e-11
-3.64153e-11
-3.15303e-11
-4.44089e-13
2.4869e-11
2.57572e-11
-7.77156e-11
2.4869e-11
5.63993e-11
-7.9492e-11
2.08722e-11
5.63993e-11
-1.33227e-12
-4.44089e-13
-1.86517e-11
8.88178e-13
1.13243e-10
1.04805e-10
-1.08802e-10
3.9968e-12
0
-1.09246e-10
1.05249e-10
0
4.88498e-12
1.10578e-10
-1.86517e-11
-1.05693e-10
2.08722e-11
1.07025e-10
0
-1.10578e-10
0
0
1.11466e-10
1.11466e-10
-5.9952e-11
-1.24345e-11
7.90479e-11
-2.39808e-11
-1.90958e-11
3.64153e-11
1.33227e-11
0
-3.9968e-12
-9.32587e-12
0
3.73035e-11
2.22045e-12
-3.55271e-12
-3.59712e-11
3.10862e-12
3.68594e-11
0
1.0747e-10
1.08358e-10
-2.08722e-11
9.32587e-12
7.99361e-12
6.66134e-12
4.92939e-11
-2.08722e-11
4.44089e-12
-4.35207e-11
1.16795e-10
1.72307e-10
0
-4.44089e-13
2.08722e-11
-4.17444e-11
1.5099e-11
7.99361e-12
-6.75016e-11
0
6.39488e-11
2.35367e-11
3.37508e-11
-4.84057e-11
1.77636e-12
4.84057e-11
-6.43929e-11
0
6.4837e-11
0
1.08802e-10
1.11022e-10
1.9984e-11
-1.73195e-11
1.33227e-12
2.53131e-11
-1.33227e-11
0
4.88498e-12
0
1.17684e-10
1.11022e-10
-3.95239e-11
-2.75335e-11
3.01981e-11
-1.06581e-11
1.42109e-11
1.82077e-11
-7.23865e-11
1.33227e-11
7.32747e-11
1.64313e-11
4.17444e-11
-4.08562e-11
1.77636e-12
4.84057e-11
-1.33227e-11
0
-2.30926e-11
0
1.45661e-10
1.11022e-10
2.13163e-11
2.22045e-12
9.23706e-11
-2.22045e-12
-9.32587e-11
7.54952e-12
4.44089e-13
0
1.06581e-10
1.06137e-10
-1.86517e-11
-1.16351e-10
1.31006e-10
1.16795e-10
0
0
-4.44089e-13
0
1.33227e-12
1.33227e-12
1.86517e-11
3.33067e-11
-3.55271e-11
2.22045e-12
0
-3.59712e-11
3.68594e-11
3.37508e-11
9.68114e-11
9.99201e-11
0
4.75175e-11
-7.10543e-12
1.28786e-11
-5.32907e-11
-7.54952e-12
3.59712e-11
0
1.36335e-10
1.18128e-10
1.64313e-11
2.66454e-12
3.55271e-11
-7.54952e-12
4.44089e-12
-1.33227e-11
1.19904e-11
8.88178e-13
3.10862e-12
3.33067e-11
0
6.52811e-11
3.81917e-11
-4.66294e-11
9.32587e-12
-1.95399e-11
-6.35048e-11
0
4.88498e-11
5.06262e-11
-3.59712e-11
-9.32587e-12
3.4639e-11
9.76996e-12
-7.99361e-12
0
6.66134e-12
-2.22045e-12
1.10578e-10
1.13687e-10
4.21885e-11
-4.84057e-11
1.77636e-12
4.84057e-11
-6.43929e-11
0
-1.19904e-11
0