/*--------------------------------*- C++ -*----------------------------------*\
  =========                 |
  \\      /  F ield         | OpenFOAM: The Open Source CFD Toolbox
   \\    /   O peration     | Website:  https://openfoam.org
    \\  /    A nd           | Version:  10
     \\/     M anipulation  |
\*---------------------------------------------------------------------------*/
FoamFile
{
    format      ascii;
    class       volScalarField;
    location    "2.2";
    object      gradTx;
}
// * * * * * * * * * * * * * * * * * * * * * * * * * * * * * * * * * * * * * //

dimensions      [0 -1 0 1 0 0 0];

internalField   nonuniform List<scalar> 
3000
(
-495.639
-4.3423
-0.0191206
-5.62985e-05
-1.24753e-07
-2.45581e-10
1.23457e-10
-1.42109e-11
0
1.18572e-10
-495.639
-4.3423
-0.0191206
-5.62985e-05
-1.24754e-07
-2.47802e-10
2.44249e-11
-1.64313e-11
-3.9968e-12
2.26485e-11
-495.639
-4.3423
-0.0191206
-5.62985e-05
-1.24769e-07
-2.56684e-10
8.88178e-13
1.49214e-10
5.32907e-12
-1.15907e-10
-495.639
-4.3423
-0.0191206
-5.62984e-05
-1.24615e-07
-3.0731e-10
0
0
-1.2701e-10
7.99361e-12
-495.639
-4.3423
-0.0191206
-5.62985e-05
-1.24758e-07
-2.32259e-10
1.51434e-10
1.27454e-10
-1.46994e-10
-1.22569e-10
-495.639
-4.3423
-0.0191206
-5.62985e-05
-1.24729e-07
-2.54019e-10
-2.44249e-11
1.50102e-10
2.88658e-11
-1.45661e-10
-495.639
-4.3423
-0.0191206
-5.62985e-05
-1.24601e-07
-1.35447e-10
2.22045e-12
0
-1.46994e-10
1.42109e-11
-495.639
-4.3423
-0.0191206
-5.62985e-05
-1.24763e-07
-2.78444e-10
1.23457e-10
1.86517e-11
-1.42109e-10
-6.21725e-12
-495.639
-4.3423
-0.0191206
-5.62985e-05
-1.24638e-07
-3.0953e-10
-1.20792e-10
1.16795e-10
-2.88658e-11
-1.1724e-10
-495.639
-4.3423
-0.0191206
-5.62985e-05
-1.24677e-07
-1.35003e-10
-6.21725e-12
-1.24789e-10
-1.01696e-10
1.26121e-10
-495.639
-4.3423
-0.0191206
-5.62985e-05
-1.24794e-07
-2.54907e-10
1.48326e-10
3.9968e-12
-1.27898e-10
2.22045e-12
-495.639
-4.3423
-0.0191206
-5.62985e-05
-1.24791e-07
-2.36255e-10
5.55112e-11
-2.08722e-11
1.37668e-11
-9.76996e-12
-495.639
-4.3423
-0.0191206
-5.62986e-05
-1.24743e-07
-2.50466e-10
7.54952e-12
9.05942e-11
5.77316e-12
-5.06262e-11
-495.639
-4.3423
-0.0191206
-5.62985e-05
-1.2473e-07
-2.8777e-10
-1.82077e-11
-4.44089e-13
-2.9754e-11
-4.21885e-11
-495.639
-4.3423
-0.0191206
-5.62985e-05
-1.24808e-07
-2.0739e-10
8.52651e-11
4.44089e-13
-6.75016e-11
-4.88498e-12
-495.639
-4.3423
-0.0191206
-5.62986e-05
-1.24774e-07
-2.50466e-10
7.54952e-12
9.01501e-11
6.21725e-12
-2.13163e-11
-495.639
-4.3423
-0.0191206
-5.62985e-05
-1.24818e-07
-2.34035e-10
8.52651e-11
0
-6.75016e-11
-4.4853e-11
-495.639
-4.3423
-0.0191206
-5.62985e-05
-1.24744e-07
-3.01537e-10
1.19904e-11
0
-5.72875e-11
5.72875e-11
-495.639
-4.3423
-0.0191206
-5.62985e-05
-1.24728e-07
-2.54019e-10
-1.59872e-11
-5.50671e-11
-7.41629e-11
4.04121e-11
-495.639
-4.3423
-0.0191206
-5.62985e-05
-1.24717e-07
-2.60236e-10
1.17684e-10
0
-1.30562e-10
2.08722e-11
-495.639
-4.3423
-0.0191206
-5.62985e-05
-1.2477e-07
-2.56684e-10
8.88178e-13
1.49214e-10
5.32907e-12
-1.15907e-10
-495.639
-4.3423
-0.0191206
-5.62986e-05
-1.24774e-07
-1.87406e-10
1.90958e-11
2.75335e-11
-5.77316e-12
8.88178e-13
-495.639
-4.3423
-0.0191206
-5.62985e-05
-1.24694e-07
-3.00204e-10
-2.22045e-12
-1.82077e-11
-8.74856e-11
8.74856e-11
-495.639
-4.3423
-0.0191206
-5.62985e-05
-1.24809e-07
-2.35811e-10
7.32747e-11
-3.90799e-11
-3.41949e-11
8.43769e-12
-495.639
-4.3423
-0.0191206
-5.62986e-05
-1.24783e-07
-2.5091e-10
1.77636e-11
4.44089e-13
-1.82077e-11
7.9492e-11
-495.639
-4.3423
-0.0191206
-5.62985e-05
-1.24773e-07
-3.17968e-10
8.74856e-11
-1.82077e-11
-2.22045e-11
9.10383e-11
-495.639
-4.3423
-0.0191206
-5.62985e-05
-1.24784e-07
-2.39808e-10
3.86358e-11
0
-2.08722e-11
2.08722e-11
-495.639
-4.3423
-0.0191206
-5.62985e-05
-1.24739e-07
-3.0953e-10
-1.73195e-11
0
-7.37188e-11
5.55112e-11
-495.639
-4.3423
-0.0191206
-5.62985e-05
-1.24817e-07
-2.31815e-10
1.77636e-11
-1.77636e-11
4.70735e-11
3.95239e-11
-495.639
-4.3423
-0.0191206
-5.62985e-05
-1.24751e-07
-2.54019e-10
3.9968e-12
2.88658e-11
2.44249e-11
-2.44249e-11
-495.639
-4.3423
-0.0191206
-5.62985e-05
-1.24742e-07
-2.54907e-10
1.2701e-10
0
-1.2701e-10
7.99361e-12
-495.639
-4.3423
-0.0191206
-5.62985e-05
-1.24766e-07
-2.10498e-10
1.77636e-11
0
-2.9754e-11
5.32907e-12
-495.639
-4.3423
-0.0191206
-5.62985e-05
-1.24809e-07
-2.41585e-10
2.79776e-11
4.79616e-11
1.11022e-11
3.55271e-12
-495.639
-4.3423
-0.0191206
-5.62985e-05
-1.24781e-07
-2.28706e-10
2.44249e-11
0
-4.21885e-11
-4.44089e-12
-495.639
-4.3423
-0.0191206
-5.62985e-05
-1.24779e-07
-2.98872e-10
-5.72875e-11
4.88498e-11
7.90479e-11
-7.9492e-11
-495.639
-4.3423
-0.0191206
-5.62985e-05
-1.24728e-07
-2.41585e-10
-1.59872e-11
-1.68754e-11
-7.32747e-11
-2.39808e-11
-495.639
-4.3423
-0.0191206
-5.62985e-05
-1.2473e-07
-2.98872e-10
-7.14984e-11
4.88498e-11
7.90479e-11
-7.9492e-11
-495.639
-4.3423
-0.0191206
-5.62986e-05
-1.24852e-07
-1.90958e-10
6.52811e-11
0
0
1.15463e-11
-495.639
-4.3423
-0.0191206
-5.62985e-05
-1.24786e-07
-2.81997e-10
1.9984e-11
-2.17604e-11
-6.70575e-11
3.33067e-11
-495.639
-4.3423
-0.0191206
-5.62985e-05
-1.24746e-07
-1.23901e-10
-1.59872e-11
-1.2701e-10
1.9984e-11
-1.9984e-11
-495.639
-4.3423
-0.0191206
-5.62985e-05
-1.24798e-07
-2.29594e-10
1.5099e-10
1.23013e-10
-1.46994e-10
-1.28786e-10
-495.639
-4.3423
-0.0191206
-5.62985e-05
-1.24844e-07
-1.87406e-10
7.37188e-11
-1.95399e-11
-5.55112e-11
2.53131e-11
-495.639
-4.3423
-0.0191206
-5.62985e-05
-1.24704e-07
-2.32703e-10
-7.19425e-11
-1.77636e-11
-1.82077e-11
1.77636e-11
-495.639
-4.3423
-0.0191206
-5.62985e-05
-1.24809e-07
-1.87406e-10
2.79776e-11
-8.79297e-11
2.30926e-11
7.37188e-11
-495.639
-4.3423
-0.0191206
-5.62985e-05
-1.24839e-07
-2.5091e-10
6.52811e-11
0
-6.52811e-11
6.52811e-11
-495.639
-4.3423
-0.0191206
-5.62985e-05
-1.24817e-07
-2.31815e-10
7.9492e-11
-1.82077e-11
-1.42109e-11
3.95239e-11
-495.639
-4.3423
-0.0191206
-5.62985e-05
-1.24795e-07
-2.50022e-10
6.52811e-11
0
0
6.52811e-11
-495.639
-4.3423
-0.0191206
-5.62986e-05
-1.24741e-07
-1.85185e-10
-2.44249e-11
0
-1.5099e-11
-5.01821e-11
-495.639
-4.3423
-0.0191206
-5.62985e-05
-1.24809e-07
-2.31815e-10
8.34888e-11
-1.82077e-11
-1.82077e-11
8.9706e-11
-495.639
-4.3423
-0.0191206
-5.62985e-05
-1.24798e-07
-2.56239e-10
2.13163e-11
-8.88178e-13
8.43769e-12
3.37508e-11
-495.639
-4.3423
-0.0191206
-5.62985e-05
-1.24769e-07
-1.0747e-10
-1.86517e-11
0
2.44249e-11
-1.45661e-10
-495.639
-4.3423
-0.0191206
-5.62986e-05
-1.24778e-07
-2.50466e-10
7.54952e-12
9.05942e-11
-3.4639e-11
-1.02141e-11
-495.639
-4.3423
-0.0191206
-5.62986e-05
-1.24774e-07
-2.5091e-10
6.88338e-11
0
-6.88338e-11
6.88338e-11
-495.639
-4.3423
-0.0191206
-5.62985e-05
-1.24728e-07
-1.79856e-10
-1.59872e-11
-7.99361e-11
6.21725e-12
6.88338e-11
-495.639
-4.3423
-0.0191206
-5.62986e-05
-1.24817e-07
-1.88294e-10
8.79297e-11
-4.44089e-13
-8.74856e-11
2.4869e-11
-495.639
-4.3423
-0.0191206
-5.62985e-05
-1.24854e-07
-2.31815e-10
6.88338e-11
-1.82077e-11
-3.55271e-12
7.99361e-12
-495.639
-4.3423
-0.0191206
-5.62985e-05
-1.24716e-07
-2.59348e-10
-4.04121e-11
6.57252e-11
2.57572e-11
-2.57572e-11
-495.639
-4.3423
-0.0191206
-5.62985e-05
-1.24761e-07
-2.24709e-10
-5.32907e-11
0
2.35367e-11
-3.55271e-11
-495.639
-4.3423
-0.0191206
-5.62985e-05
-1.24708e-07
-2.10498e-10
-2.62013e-11
4.04121e-11
-2.17604e-11
-2.84217e-11
-495.639
-4.3423
-0.0191206
-5.62985e-05
-1.2473e-07
-1.04361e-10
2.04281e-11
4.44089e-13
4.44089e-13
-1.28342e-10
-495.639
-4.3423
-0.0191206
-5.62985e-05
-1.24752e-07
-1.30118e-10
2.84217e-11
-1.16795e-10
-2.84217e-11
-8.88178e-13
-495.639
-4.3423
-0.0191206
-5.62985e-05
-1.2485e-07
-1.89626e-10
7.37188e-11
0
-7.37188e-11
7.10543e-12
-495.639
-4.3423
-0.0191206
-5.62985e-05
-1.24777e-07
-2.32259e-10
0
0
4.75175e-11
6.12843e-11
-495.639
-4.3423
-0.0191206
-5.62985e-05
-1.2473e-07
-2.35811e-10
-5.15143e-11
4.79616e-11
5.9952e-11
-7.01661e-11
-495.639
-4.3423
-0.0191206
-5.62985e-05
-1.24821e-07
-2.50022e-10
4.70735e-11
1.82077e-11
0
-4.44089e-13
-495.639
-4.3423
-0.0191206
-5.62985e-05
-1.24815e-07
-1.84741e-10
3.33067e-11
-2.62013e-11
-7.54952e-12
1.15463e-11
-495.639
-4.3423
-0.0191206
-5.62985e-05
-1.2473e-07
-2.50022e-10
-4.75175e-11
4.44089e-13
4.70735e-11
1.77636e-11
-495.639
-4.3423
-0.0191206
-5.62986e-05
-1.2479e-07
-2.42473e-10
-2.39808e-11
4.75175e-11
5.06262e-11
-5.06262e-11
-495.639
-4.3423
-0.0191206
-5.62985e-05
-1.24729e-07
-1.84741e-10
-2.66454e-12
-4.75175e-11
-1.95399e-11
7.19425e-11
-495.639
-4.3423
-0.0191206
-5.62985e-05
-1.24798e-07
-2.56239e-10
2.04281e-11
2.93099e-11
7.54952e-12
-7.54952e-12
-495.639
-4.3423
-0.0191206
-5.62985e-05
-1.24787e-07
-1.75859e-10
1.46549e-10
-1.23013e-10
0
-6.21725e-12
-495.639
-4.3423
-0.0191206
-5.62985e-05
-1.24745e-07
-2.39364e-10
1.11022e-11
-1.11022e-11
-4.44089e-13
1.15463e-11
-495.639
-4.3423
-0.0191206
-5.62985e-05
-1.24742e-07
-2.88214e-10
-1.42109e-11
-2.13163e-11
-5.55112e-11
5.55112e-11
-495.639
-4.3423
-0.0191206
-5.62986e-05
-1.24852e-07
-2.52687e-10
6.21725e-12
1.9984e-11
-7.10543e-12
5.77316e-11
-495.639
-4.3423
-0.0191206
-5.62985e-05
-1.24708e-07
-3.04201e-10
-6.43929e-11
6.57252e-11
2.44249e-11
-6.88338e-11
-495.639
-4.3423
-0.0191206
-5.62985e-05
-1.24708e-07
-2.9754e-10
-5.37348e-11
0
2.44249e-11
5.37348e-11
-495.639
-4.3423
-0.0191206
-5.62985e-05
-1.24779e-07
-2.41585e-10
-3.59712e-11
4.52971e-11
2.44249e-11
-4.84057e-11
-495.639
-4.3423
-0.0191206
-5.62986e-05
-1.24772e-07
-2.49578e-10
7.28306e-11
0
-5.41789e-11
0
-495.639
-4.3423
-0.0191206
-5.62985e-05
-1.24779e-07
-1.93623e-10
-3.64153e-11
-4.75175e-11
-1.46549e-11
7.50511e-11
-495.639
-4.3423
-0.0191206
-5.62985e-05
-1.24725e-07
-2.54019e-10
-7.10543e-12
1.50102e-10
-1.02141e-11
-1.35003e-10
-495.639
-4.3423
-0.0191206
-5.62985e-05
-1.24602e-07
-1.31006e-10
-1.20348e-10
0
-2.88658e-11
-1.1724e-10
-495.639
-4.3423
-0.0191206
-5.62986e-05
-1.24761e-07
-1.89626e-10
-1.59872e-11
-5.59552e-11
-7.32747e-11
4.04121e-11
-495.639
-4.3423
-0.0191206
-5.62985e-05
-1.24774e-07
-2.33147e-10
1.82077e-11
-1.77636e-11
-1.82077e-11
3.90799e-11
-495.639
-4.3423
-0.0191206
-5.62985e-05
-1.24809e-07
-2.50466e-10
7.37188e-11
-6.9722e-11
-2.30926e-11
0
-495.639
-4.3423
-0.0191206
-5.62985e-05
-1.24816e-07
-1.88294e-10
6.57252e-11
-4.44089e-13
-6.52811e-11
-4.44089e-11
-495.639
-4.3423
-0.0191206
-5.62985e-05
-1.24708e-07
-1.84741e-10
-1.5099e-11
-4.70735e-11
-7.54952e-12
3.33067e-11
-495.639
-4.3423
-0.0191206
-5.62985e-05
-1.248e-07
-2.59792e-10
2.62013e-11
1.77636e-11
4.44089e-13
-1.82077e-11
-495.639
-4.3423
-0.0191206
-5.62985e-05
-1.24749e-07
-2.10054e-10
-2.44249e-11
1.64313e-11
7.50511e-11
-6.4837e-11
-495.639
-4.3423
-0.0191206
-5.62985e-05
-1.24799e-07
-2.32259e-10
6.17284e-11
3.24185e-11
-7.9492e-11
-3.24185e-11
-495.639
-4.3423
-0.0191206
-5.62985e-05
-1.24739e-07
-1.04361e-10
-5.77316e-12
-1.23013e-10
-6.66134e-12
-2.62013e-11
-495.639
-4.3423
-0.0191206
-5.62985e-05
-1.24677e-07
-2.58016e-10
8.88178e-13
-1.33227e-12
-1.09246e-10
1.55431e-11
-495.639
-4.3423
-0.0191206
-5.62985e-05
-1.24754e-07
-2.55795e-10
-4.88498e-12
-4.88498e-12
-3.10862e-12
1.52323e-10
-495.639
-4.3423
-0.0191206
-5.62985e-05
-1.24797e-07
-2.51799e-10
-4.44089e-13
2.4869e-11
0
-2.44249e-11
-495.639
-4.3423
-0.0191206
-5.62984e-05
-1.24758e-07
-1.77192e-10
9.32587e-12
-1.22125e-10
1.46549e-11
5.32907e-12
-495.639
-4.3423
-0.0191206
-5.62985e-05
-1.24758e-07
-2.54907e-10
0
2.88658e-11
0
-2.88658e-11
-495.639
-4.3423
-0.0191206
-5.62985e-05
-1.2475e-07
-2.74003e-10
2.04281e-11
4.88498e-12
8.88178e-13
1.64313e-11
-495.639
-4.3423
-0.0191206
-5.62985e-05
-1.24776e-07
-2.57128e-10
6.66134e-12
-6.66134e-12
-2.84217e-11
-2.22045e-11
-495.639
-4.3423
-0.0191206
-5.62985e-05
-1.24759e-07
-2.67786e-10
-6.21725e-12
7.99361e-12
-1.02141e-11
-1.42109e-11
-495.639
-4.3423
-0.0191206
-5.62985e-05
-1.24786e-07
-2.73559e-10
1.27454e-10
2.66454e-11
-1.27898e-10
1.23013e-10
-495.639
-4.3423
-0.0191206
-5.62985e-05
-1.24629e-07
-2.47802e-10
-1.23901e-10
1.24789e-10
1.24789e-10
-1.23901e-10
1.77636e-12
2.22045e-12
-2.66454e-12
3.9968e-12
-3.9968e-12
4.44089e-13
0
-2.22045e-12
5.77316e-12
-3.9968e-12
-7.10543e-12
-8.88178e-13
1.11022e-11
4.44089e-13
1.23457e-10
-9.76996e-12
-1.24345e-10
1.06581e-11
8.79297e-11
-8.88178e-13
-7.10543e-12
-9.32587e-12
1.77636e-12
0
1.19016e-10
-9.32587e-12
-1.23013e-10
1.33227e-11
-2.66454e-12
-8.88178e-13
3.9968e-12
1.19016e-10
1.59872e-11
0
-3.9968e-11
2.22045e-12
2.35367e-11
-1.20792e-10
-6.21725e-12
0
1.34115e-10
0
-1.15463e-10
1.25677e-10
5.32907e-12
-1.29674e-10
-8.88178e-13
4.88498e-12
1.20348e-10
-1.33227e-12
-6.66134e-12
1.46994e-10
1.33227e-12
-1.26565e-10
1.19016e-10
-9.32587e-12
3.9968e-12
1.28786e-11
-1.2923e-10
-8.88178e-13
1.73195e-11
-1.25233e-10
8.88178e-13
0
5.32907e-12
-3.9968e-12
-8.88178e-13
2.17604e-11
1.20348e-10
-1.82077e-11
-4.88498e-12
-7.99361e-12
1.45217e-10
1.37668e-11
1.77636e-12
-2.39808e-11
-1.23457e-10
0
0
5.77316e-12
1.4877e-10
6.21725e-12
8.88178e-13
1.24789e-10
-1.77636e-12
-1.02141e-11
-1.20348e-10
-1.1946e-10
1.20348e-10
3.9968e-12
1.0969e-10
0
-8.88178e-13
0
4.44089e-13
-2.22045e-12
1.77636e-12
-9.72555e-11
-2.66454e-12
9.99201e-11
-7.10543e-12
-8.88178e-13
1.32783e-10
4.44089e-13
1.77636e-12
-2.26485e-11
-1.24789e-10
2.39808e-11
8.79297e-11
-8.88178e-13
-1.11022e-11
4.66294e-11
1.68754e-11
1.42109e-11
-7.99361e-12
7.99361e-12
-1.68754e-11
1.59872e-11
1.15463e-11
-8.4821e-11
-7.9492e-11
2.93099e-11
1.02141e-11
0
8.08242e-11
1.86517e-11
-2.22045e-11
-7.72715e-11
2.22045e-11
8.08242e-11
-3.95239e-11
3.86358e-11
-4.44089e-13
4.88498e-12
7.32747e-11
3.28626e-11
-4.44089e-13
-2.39808e-11
-2.70894e-11
1.42109e-11
4.4853e-11
3.01981e-11
-2.88658e-11
-5.41789e-11
5.68434e-11
1.95399e-11
-2.22045e-11
2.57572e-11
2.22045e-11
-8.88178e-12
-3.59712e-11
4.44089e-13
3.28626e-11
2.17604e-11
1.46549e-11
-3.86358e-11
-2.22045e-11
-5.24025e-11
2.22045e-11
6.88338e-11
-1.73195e-11
2.93099e-11
5.24025e-11
4.44089e-12
3.95239e-11
-2.17604e-11
0
2.44249e-11
-4.4853e-11
-7.99361e-12
-1.02141e-11
-3.01981e-11
7.23865e-11
3.01981e-11
8.88178e-13
-6.70575e-11
-5.77316e-12
0
-4.44089e-13
7.01661e-11
4.35207e-11
4.44089e-13
3.28626e-11
2.17604e-11
1.46549e-11
-3.86358e-11
0
-5.24025e-11
0
9.10383e-11
5.77316e-12
1.32339e-10
-1.19904e-11
-1.24345e-10
9.76996e-12
-1.33227e-11
1.27898e-10
1.33227e-11
-5.32907e-12
1.23457e-10
-7.10543e-12
-9.32587e-12
1.77636e-12
1.27898e-10
-5.77316e-12
-7.54952e-12
2.22045e-12
-1.16795e-10
1.22569e-10
-3.55271e-12
-3.64153e-11
-2.13163e-11
-3.37508e-11
2.22045e-11
8.08242e-11
-3.86358e-11
-2.22045e-11
-5.24025e-11
2.22045e-11
5.06262e-11
5.24025e-11
-7.9492e-11
2.44249e-11
3.10862e-11
-3.73035e-11
-2.39808e-11
4.52971e-11
6.17284e-11
-4.57412e-11
1.06581e-11
4.44089e-11
4.66294e-11
-2.44249e-11
3.01981e-11
9.76996e-12
-1.77636e-12
0
-2.44249e-11
-5.37348e-11
-5.15143e-11
7.68274e-11
-6.17284e-11
0
0
-5.86198e-11
5.86198e-11
0
0
0
-5.86198e-11
-5.50671e-11
-3.9968e-11
7.28306e-11
0
-4.44089e-11
-4.04121e-11
5.19584e-11
0
-3.9968e-11
4.04121e-11
1.06581e-11
0
0
-2.08722e-11
1.02141e-11
5.90639e-11
0
-4.84057e-11
-2.08722e-11
5.06262e-11
6.57252e-11
-5.86198e-11
1.11022e-11
5.86198e-11
-6.17284e-11
-1.37668e-11
1.86517e-11
3.01981e-11
3.9968e-11
-6.21725e-12
1.82077e-11
0
-8.39329e-11
-2.13163e-11
4.44089e-13
2.57572e-11
3.86358e-11
4.04121e-11
0
-3.9968e-12
-2.88658e-11
0
0
2.44249e-11
4.44089e-12
-2.88658e-11
0
0
2.44249e-11
4.44089e-12
3.9968e-12
-6.21725e-12
1.64313e-11
0
-1.64313e-11
1.27454e-10
-4.44089e-13
-1.20792e-10
-6.21725e-12
0
-3.9968e-11
-2.66454e-11
-4.44089e-13
4.44089e-12
8.43769e-12
3.28626e-11
8.4821e-11
-7.32747e-11
-2.22045e-12
6.35048e-11
-1.06581e-11
-1.42109e-11
3.10862e-11
3.01981e-11
9.76996e-12
-8.88178e-12
0
1.59872e-11
1.15463e-11
-2.39808e-11
1.19904e-11
-1.24345e-11
2.04281e-11
1.28786e-11
-5.06262e-11
1.37668e-11
0
3.55271e-12
5.90639e-11
-4.79616e-11
-7.68274e-11
-4.44089e-13
7.37188e-11
6.52811e-11
-7.54952e-11
-7.41629e-11
8.88178e-13
1.02141e-11
8.4821e-11
-2.66454e-12
0
-1.15463e-11
6.57252e-11
5.72875e-11
3.55271e-12
4.44089e-12
0
-1.33227e-11
1.59872e-11
1.5099e-11
-3.55271e-12
0
-2.08722e-11
6.52811e-11
1.06581e-11
-5.55112e-11
0
6.57252e-11
-4.44089e-13
-7.50511e-11
-2.22045e-11
7.54952e-12
4.44089e-13
-1.9984e-11
-1.77636e-11
-5.55112e-11
-1.82077e-11
-4.44089e-13
1.86517e-11
7.54952e-11
2.53131e-11
-4.44089e-12
4.66294e-11
0
-1.64313e-11
3.01981e-11
-6.57252e-11
1.68754e-11
3.77476e-11
-3.77476e-11
3.55271e-12
0
-1.06581e-11
2.35367e-11
1.15463e-11
1.21236e-10
-8.88178e-13
-1.20792e-10
1.22569e-10
-2.30926e-11
-3.9968e-12
6.21725e-12
2.79776e-11
0
1.19016e-10
1.17684e-10
-1.19904e-10
-1.16795e-10
1.20348e-10
-1.33227e-12
7.14984e-11
2.22045e-11
-6.12843e-11
0
6.26166e-11
-3.10862e-11
-8.88178e-13
-4.08562e-11
-4.04121e-11
3.28626e-11
9.32587e-11
3.28626e-11
-1.64313e-11
-3.28626e-11
-5.86198e-11
1.64313e-11
-9.76996e-12
4.21885e-11
9.76996e-12
-5.86198e-11
-4.08562e-11
1.9984e-11
7.72715e-11
-6.52811e-11
-7.90479e-11
-1.82077e-11
4.44089e-13
4.13003e-11
7.10543e-12
-4.44089e-11
7.68274e-11
0
0
0
-1.15463e-11
1.15463e-11
-6.57252e-11
0
6.57252e-11
-1.15463e-11
-3.73035e-11
4.84057e-11
6.12843e-11
0
-2.66454e-11
-3.9968e-12
-2.35367e-11
-5.55112e-11
4.84057e-11
1.06581e-11
1.82077e-11
0
0
-4.75175e-11
-6.52811e-11
6.57252e-11
4.70735e-11
0
-4.70735e-11
-4.44089e-11
1.77636e-11
0
6.57252e-11
5.90639e-11
-6.92779e-11
-1.37668e-11
7.28306e-11
3.10862e-12
-1.42109e-11
2.08722e-11
-2.17604e-11
4.44089e-13
-4.39648e-11
0
7.63833e-11
-4.61853e-11
1.33227e-11
0
0
1.90958e-11
-5.32907e-12
-1.33227e-11
4.44089e-13
0
1.27898e-10
2.22045e-12
-1.1724e-10
-4.44089e-13
-1.28786e-11
1.77636e-12
-6.66134e-12
1.46994e-10
-1.15463e-11
-1.2701e-10
1.36335e-10
-9.32587e-12
0
1.28786e-11
-1.2923e-10
1.23457e-10
5.06262e-11
1.11022e-11
-3.06422e-11
8.88178e-13
3.10862e-11
-5.68434e-11
0
5.55112e-11
-2.22045e-11
1.33227e-12
1.02141e-11
0
0
-6.08402e-11
6.9722e-11
6.66134e-12
1.15463e-11
-4.88498e-12
-3.55271e-12
4.08562e-11
-3.10862e-12
-4.08562e-11
-7.68274e-11
-1.95399e-11
8.52651e-11
3.5083e-11
-1.64313e-11
3.33067e-11
-3.5083e-11
-2.66454e-12
7.63833e-11
-2.22045e-12
3.9968e-12
-3.41949e-11
-6.26166e-11
2.57572e-11
2.13163e-11
0
0
1.06581e-11
-5.77316e-12
8.4821e-11
2.84217e-11
-4.21885e-11
-4.88498e-11
-4.04121e-11
-3.10862e-11
4.92939e-11
4.26326e-11
2.84217e-11
1.82077e-11
3.4639e-11
3.9968e-12
1.33227e-11
-6.9722e-11
-3.9968e-12
2.17604e-11
0
2.57572e-11
-3.9968e-12
5.06262e-11
1.28786e-11
-2.66454e-11
-1.28786e-11
-4.84057e-11
7.28306e-11
7.23865e-11
-3.55271e-12
-2.66454e-12
0
6.57252e-11
-4.88498e-12
-2.39808e-11
-6.66134e-12
-4.21885e-11
4.4853e-11
3.28626e-11
-4.44089e-13
-1.11022e-11
-3.9968e-12
6.21725e-12
1.31006e-10
-1.77636e-11
0
-6.21725e-12
-1.51879e-10
1.64313e-11
0
-1.64313e-11
2.08722e-11
2.62013e-11
6.66134e-12
1.33227e-12
1.25677e-10
1.19016e-10
-1.37224e-10
-1.20792e-10
1.33227e-11
-4.88498e-12
1.24789e-10
7.63833e-11
-2.17604e-11
-1.68754e-11
2.22045e-11
3.10862e-11
-5.68434e-11
-2.22045e-11
5.55112e-11
0
-3.90799e-11
1.82077e-11
-3.9968e-11
-2.08722e-11
4.84057e-11
-4.44089e-13
0
1.15463e-11
-3.9968e-12
1.33227e-11
-6.52811e-11
-6.92779e-11
5.59552e-11
4.4853e-11
1.11022e-11
1.11022e-11
-2.22045e-11
-6.52811e-11
-4.52971e-11
0
5.59552e-11
-3.64153e-11
5.06262e-11
5.77316e-12
-1.82077e-11
5.55112e-11
3.28626e-11
-2.44249e-11
-5.50671e-11
-2.62013e-11
-1.06581e-11
0
-4.88498e-12
9.32587e-12
-1.86517e-11
-5.24025e-11
1.5099e-11
8.88178e-12
8.88178e-12
8.26006e-11
3.5083e-11
-2.17604e-11
-9.32587e-12
8.88178e-12
4.26326e-11
-5.24025e-11
-7.99361e-12
1.82077e-11
0
2.17604e-11
4.35207e-11
-1.42109e-11
1.24345e-11
0
-1.24345e-11
-3.64153e-11
6.88338e-11
7.32747e-11
-4.44089e-12
-2.66454e-12
3.9968e-12
4.66294e-11
-3.86358e-11
-3.06422e-11
-1.15463e-11
2.39808e-11
2.35367e-11
-6.57252e-11
-3.55271e-12
4.75175e-11
-5.9508e-11
-8.88178e-13
7.99361e-12
0
-2.39808e-11
-2.35367e-11
2.30926e-11
1.64313e-11
0
1.31006e-10
-3.55271e-12
-1.30562e-10
1.17684e-10
-2.04281e-11
-1.14575e-10
1.47882e-10
-5.77316e-12
-1.19016e-10
0
-1.77636e-12
1.1946e-10
-5.32907e-12
7.99361e-12
-7.99361e-11
-2.22045e-12
8.52651e-11
-1.11022e-11
0
-4.04121e-11
6.21725e-12
1.24345e-11
-1.82077e-11
8.88178e-13
5.90639e-11
0
3.41949e-11
1.33227e-11
-5.9508e-11
-3.9968e-12
4.04121e-11
0
4.30767e-11
7.99361e-12
0
0
-1.77636e-11
-7.54952e-11
0
0
4.66294e-11
3.68594e-11
2.62013e-11
1.28786e-11
-6.52811e-11
-1.28786e-11
7.37188e-11
3.68594e-11
1.77636e-11
-1.24345e-11
-6.21725e-12
4.39648e-11
5.06262e-11
-1.95399e-11
-5.77316e-12
1.90958e-11
-4.9738e-11
-5.90639e-11
0
4.92939e-11
-2.4869e-11
-7.37188e-11
0
1.28786e-11
0
-1.28786e-11
-5.77316e-12
6.21725e-11
5.72875e-11
1.46549e-11
-1.77636e-11
-7.54952e-12
2.9754e-11
6.4837e-11
-4.52971e-11
-1.90958e-11
6.17284e-11
-4.26326e-11
1.37668e-11
0
-3.33067e-11
1.55431e-11
6.52811e-11
-1.90958e-11
-2.22045e-11
1.90958e-11
4.44089e-11
-4.08562e-11
-5.37348e-11
-8.88178e-12
-2.53131e-11
3.41949e-11
-4.88498e-12
1.37668e-10
0
-3.68594e-11
1.51879e-10
-9.23706e-11
0
-2.22045e-12
0
-2.26485e-11
1.49214e-10
5.77316e-12
-1.26121e-10
1.25677e-10
1.24345e-10
-1.42109e-10
-1.20348e-10
1.28786e-11
-4.44089e-12
3.55271e-12
8.9706e-11
0
-6.12843e-11
1.64313e-11
6.26166e-11
-2.62013e-11
-2.13163e-11
-4.21885e-11
-1.77636e-11
7.32747e-11
1.02141e-11
0
7.37188e-11
0
-8.39329e-11
-2.35367e-11
7.32747e-11
-5.32907e-12
-3.41949e-11
7.99361e-12
-5.01821e-11
-1.06581e-11
9.05942e-11
7.68274e-11
-1.64313e-11
4.88498e-12
-6.57252e-11
-2.39808e-11
-4.44089e-13
8.43769e-12
7.63833e-11
-9.76996e-12
3.9968e-12
7.90479e-11
-1.77636e-11
-1.06581e-11
2.66454e-12
0
0
-5.86198e-11
1.59872e-11
-4.88498e-12
-4.44089e-11
4.88498e-12
5.06262e-11
7.99361e-12
-5.68434e-11
1.28786e-11
7.10543e-11
1.55431e-11
1.82077e-11
6.88338e-11
3.9968e-12
-6.88338e-11
2.22045e-12
8.34888e-11
-8.9706e-11
0
4.39648e-11
-6.61693e-11
-8.9706e-11
1.28786e-11
0
5.77316e-12
1.46549e-11
1.86517e-11
7.28306e-11
-8.43769e-12
-4.17444e-11
1.73195e-11
8.34888e-11
5.59552e-11
3.9968e-12
-5.59552e-11
-8.79297e-11
6.57252e-11
5.06262e-11
4.88498e-12
-5.15143e-11
-7.99361e-12
6.21725e-12
2.66454e-11
-1.73195e-11
2.22045e-12
1.38556e-10
-2.93099e-11
-1.49214e-10
-4.44089e-13
2.22045e-11
4.44089e-12
-1.42109e-11
1.10578e-10
2.53131e-11
0
9.76996e-11
-2.22045e-12
2.22045e-12
-9.72555e-11
-2.66454e-12
9.99201e-11
1.24345e-10
-1.25677e-10
-1.31894e-10
1.20792e-10
1.35003e-10
-1.19016e-10
-1.25677e-10
-2.39808e-11
0
1.64313e-11
1.38112e-10
0
-1.38556e-10
0
1.50102e-10
1.40332e-10
-1.44329e-10
-6.66134e-12
-8.88178e-13
-1.34115e-10
1.33227e-12
-4.44089e-12
-9.76996e-12
-2.30926e-11
1.06581e-11
1.24345e-11
-2.35367e-11
1.32339e-10
1.90958e-11
-1.44329e-10
1.38112e-10
2.53131e-11
6.66134e-12
-3.9968e-12
-1.23457e-10
1.17684e-10
-2.22045e-11
4.44089e-13
0
-1.0969e-10
0
1.31006e-10
8.88178e-13
0
1.26121e-10
-1.33227e-12
-1.23013e-10
-1.26121e-10
-2.17604e-11
-2.66454e-12
1.49658e-10
2.66454e-11
4.44089e-13
-2.26485e-11
4.44089e-13
1.64313e-11
-1.4877e-10
1.27454e-10
1.5099e-10
-1.28342e-10
0
1.36779e-10
0
0
1.11022e-10
-1.23457e-10
-8.70415e-11
-1.77636e-12
-2.26485e-11
1.28786e-11
-2.17604e-11
2.22045e-12
-4.44089e-13
-1.2701e-10
4.57412e-11
-2.53131e-11
-1.55431e-11
-8.88178e-13
-2.44249e-11
1.49658e-10
-1.77636e-12
-1.33227e-12
-1.33227e-12
1.23901e-10
-1.2168e-10
-1.23457e-10
8.88178e-13
1.23013e-10
1.23457e-10
8.88178e-13
-5.77316e-12
2.22045e-12
0
-2.22045e-12
1.77636e-12
0
4.44089e-13
0
-1.23013e-10
-1.21236e-10
-8.83738e-11
-4.44089e-12
-4.44089e-13
4.88498e-12
-2.66454e-12
0
4.44089e-13
0
1.23013e-10
1.20348e-10
6.21725e-12
8.88178e-13
-1.33227e-12
-1.33227e-12
0
0
-1.68754e-11
0
1.37224e-10
1.20792e-10
6.21725e-12
-5.77316e-12
-2.35367e-11
-1.82077e-11
1.46549e-10
-4.44089e-13
4.44089e-13
4.44089e-13
1.33227e-12
1.48326e-10
5.32907e-12
1.33227e-12
0
1.24345e-10
0
0
-1.33227e-10
0
1.34115e-10
1.33227e-12
-2.26485e-11
1.82077e-11
1.52323e-10
1.07914e-10
0
0
-1.95399e-11
0
2.04281e-11
1.33227e-12
-1.22569e-10
-1.19904e-11
0
9.76996e-12
1.27898e-10
0
-1.33227e-12
-3.9968e-12
8.88178e-13
1.31006e-10
-8.88178e-13
1.82077e-11
-2.22045e-12
1.12355e-10
-1.46549e-11
-1.15907e-10
1.82077e-11
-2.66454e-12
1.23901e-10
1.29674e-10
-1.47438e-10
-9.32587e-12
1.52323e-10
1.35447e-10
0
0
-4.44089e-13
0
1.33227e-12
1.33227e-12
-3.9968e-12
-4.44089e-13
6.21725e-12
4.44089e-13
0
0
-1.26565e-10
0
-8.88178e-13
-1.27898e-10
-8.83738e-11
-4.88498e-12
0
4.88498e-12
-2.66454e-12
0
4.44089e-13
0
1.23013e-10
1.20348e-10
-1.06581e-11
3.81917e-11
0
2.17604e-11
-1.68754e-11
0
-2.22045e-12
-5.06262e-11
1.66533e-10
1.98952e-10
-9.10383e-11
-3.19744e-11
5.15143e-11
-8.88178e-12
4.04121e-11
-4.44089e-13
-6.43929e-11
0
6.39488e-11
3.86358e-11
2.70894e-11
-2.13163e-11
0
2.13163e-11
0
6.21725e-12
-3.06422e-11
8.88178e-13
3.06422e-11
-4.44089e-12
-2.84217e-11
8.88178e-12
-1.19904e-11
-8.88178e-12
4.04121e-11
-4.44089e-13
-5.28466e-11
0
4.39648e-11
3.06422e-11
-2.22045e-11
1.15463e-11
0
-1.15463e-11
2.22045e-11
0
-4.88498e-12
2.13163e-11
1.32339e-10
1.2701e-10
1.90958e-11
-3.9968e-11
3.10862e-12
4.04121e-11
2.22045e-11
0
0
0
1.23457e-10
1.46105e-10
-1.68754e-11
-2.75335e-11
2.22045e-11
3.15303e-11
-5.72875e-11
-4.44089e-13
2.53131e-11
8.88178e-13
1.53211e-10
1.21236e-10
-2.22045e-11
-5.68434e-11
0
3.4639e-11
2.22045e-11
0
4.44089e-13
0
8.88178e-13
2.30926e-11
-1.25677e-10
-1.36335e-10
-1.33227e-12
5.77316e-12
0
0
-2.08722e-11
0
1.52767e-10
1.31894e-10
-1.47438e-10
3.10862e-12
2.53131e-11
1.24345e-10
0
-1.27898e-10
-1.46549e-11
0
1.37224e-10
1.23013e-10
4.44089e-13
-3.64153e-11
-3.95239e-11
7.59393e-11
0
-4.04121e-11
3.5083e-11
0
1.31894e-10
1.66978e-10
0
3.9968e-12
5.06262e-11
-5.19584e-11
-6.21725e-11
0
6.35048e-11
0
-5.32907e-12
4.66294e-11
5.4623e-11
3.81917e-11
-6.03961e-11
2.22045e-11
4.30767e-11
-6.08402e-11
-1.77636e-12
9.76996e-12
1.55875e-10
1.87406e-10
0
7.32747e-11
0
-7.32747e-11
0
0
7.32747e-11
0
-2.17604e-11
5.10703e-11
0
4.04121e-11
0
-4.04121e-11
0
0
-1.64313e-11
3.9968e-11
5.55112e-11
-8.88178e-13
4.44089e-13
1.33227e-11
6.17284e-11
-7.50511e-11
-4.04121e-11
6.17284e-11
5.37348e-11
0
-2.39808e-11
-1.02141e-11
-2.30926e-11
-7.28306e-11
4.04121e-11
4.04121e-11
-7.99361e-12
4.08562e-11
1.77636e-12
-4.4853e-11
-6.21725e-12
3.37508e-11
-2.13163e-11
1.19904e-11
6.12843e-11
-7.32747e-11
-4.04121e-11
6.17284e-11
4.79616e-11
-4.04121e-11
-1.77636e-11
2.9754e-11
0
1.43441e-10
-2.44249e-11
-1.19016e-10
0
-2.44249e-11
1.43441e-10
0
5.77316e-12
1.4877e-10
-1.73195e-11
-5.32907e-12
2.30926e-11
-1.77636e-11
-8.88178e-13
2.93099e-11
1.23901e-10
-5.32907e-12
0
1.23457e-10
-1.77636e-11
-2.08722e-11
-4.44089e-13
2.13163e-11
0
6.21725e-12
9.76996e-12
0
1.02141e-11
1.42109e-11
-6.66134e-12
2.30926e-11
0
-1.82077e-11
-2.13163e-11
0
3.86358e-11
0
1.25677e-10
1.42997e-10
-4.17444e-11
0
3.41949e-11
7.01661e-11
-7.10543e-12
0
-3.10862e-12
0
1.41664e-10
1.3145e-10
-1.90958e-11
8.34888e-11
-6.52811e-11
-1.82077e-11
6.52811e-11
-6.52811e-11
1.37668e-11
4.44089e-13
6.21725e-12
8.52651e-11
-1.77636e-12
-6.26166e-11
-6.52811e-11
4.4853e-11
3.28626e-11
-2.22045e-11
-8.88178e-13
-3.37508e-11
4.30767e-11
7.50511e-11
-4.44089e-12
4.52971e-11
2.22045e-11
1.46549e-11
-8.21565e-11
2.13163e-11
4.44089e-11
0
3.9968e-11
8.88178e-13
-2.53131e-11
-6.4837e-11
8.52651e-11
3.15303e-11
-8.52651e-11
-1.73195e-11
8.34888e-11
5.06262e-11
1.77636e-12
0
3.73035e-11
-2.66454e-11
-6.52811e-11
4.4853e-11
-9.76996e-12
-2.22045e-11
4.17444e-11
-3.37508e-11
4.30767e-11
7.50511e-11
-1.23013e-10
1.42553e-10
-1.33227e-12
-1.19016e-10
0
-1.77636e-12
1.23013e-10
0
2.22045e-12
1.24789e-10
-1.18572e-10
8.88178e-13
-1.33227e-12
-1.33227e-12
0
0
1.77636e-12
0
1.18572e-10
1.20792e-10
4.04121e-11
-3.64153e-11
-3.95239e-11
7.59393e-11
-4.44089e-13
-3.9968e-11
-2.44249e-11
3.64153e-11
1.91847e-10
1.30118e-10
0
7.54952e-11
6.52811e-11
-7.54952e-11
-1.42109e-11
-4.44089e-13
2.4869e-11
0
-2.39808e-11
5.10703e-11
7.59393e-11
3.86358e-11
-2.17604e-11
4.39648e-11
-8.43769e-12
-2.22045e-11
-1.06581e-11
-5.06262e-11
1.55875e-10
1.87406e-10
-4.75175e-11
-1.15463e-11
0
-3.55271e-11
4.75175e-11
-4.44089e-13
-1.06581e-11
-8.88178e-13
1.55431e-11
5.15143e-11
-7.54952e-12
-2.44249e-11
-3.9968e-11
2.39808e-11
0
0
1.95399e-11
8.88178e-13
2.62013e-11
4.66294e-11
6.17284e-11
4.57412e-11
-3.95239e-11
-4.66294e-11
0
0
4.57412e-11
8.88178e-13
1.28786e-11
5.9508e-11
1.42109e-11
-7.54952e-12
-4.08562e-11
1.11022e-11
3.73035e-11
-4.17444e-11
-3.64153e-11
-4.44089e-13
2.88658e-11
2.84217e-11
-8.9706e-11
2.88658e-11
6.52811e-11
-9.14824e-11
2.44249e-11
6.52811e-11
-2.22045e-12
0
-2.22045e-11
-4.44089e-13
1.30562e-10
1.22569e-10
-1.26565e-10
3.9968e-12
0
-1.26565e-10
1.22569e-10
0
5.32907e-12
1.27898e-10
-2.22045e-11
-1.06581e-10
2.4869e-11
1.0747e-10
0
-1.27898e-10
0
0
1.28786e-10
1.2923e-10
-6.88338e-11
-1.46549e-11
9.10383e-11
-2.53131e-11
-2.26485e-11
4.04121e-11
1.64313e-11
0
-5.77316e-12
-1.11022e-11
0
4.04121e-11
3.55271e-12
-3.9968e-12
-4.04121e-11
3.9968e-12
4.04121e-11
0
1.25233e-10
1.25233e-10
-2.57572e-11
1.19904e-11
9.76996e-12
7.10543e-12
5.63993e-11
-2.44249e-11
6.21725e-12
-5.06262e-11
1.35891e-10
1.98952e-10
0
0
2.35367e-11
-4.84057e-11
1.77636e-11
1.11022e-11
-7.86038e-11
0
7.37188e-11
2.39808e-11
3.64153e-11
-5.32907e-11
2.22045e-12
5.32907e-11
-7.50511e-11
0
7.63833e-11
0
1.25677e-10
1.28786e-10
2.22045e-11
-2.04281e-11
3.10862e-12
2.75335e-11
-1.55431e-11
0
6.21725e-12
0
1.36335e-10
1.28786e-10
-4.57412e-11
-3.15303e-11
3.41949e-11
-1.24345e-11
1.68754e-11
2.17604e-11
-8.34888e-11
1.37668e-11
8.43769e-11
1.9984e-11
4.79616e-11
-4.52971e-11
2.22045e-12
5.32907e-11
-1.55431e-11
0
-2.44249e-11
0
1.66978e-10
1.28786e-10
2.9754e-11
2.66454e-12
1.04805e-10
-2.66454e-12
-1.10578e-10
1.33227e-11
4.44089e-13
0
1.23457e-10
1.18128e-10
-2.26485e-11
-1.35003e-10
1.52323e-10
1.35447e-10
0
0
-4.44089e-13
0
1.33227e-12
1.33227e-12
2.26485e-11
3.64153e-11
-3.95239e-11
3.10862e-12
0
-4.04121e-11
4.13003e-11
3.64153e-11
1.13687e-10
1.18128e-10
0
5.41789e-11
-7.54952e-12
1.46549e-11
-6.17284e-11
-7.54952e-12
4.08562e-11
0
1.57652e-10
1.36779e-10
1.9984e-11
2.66454e-12
4.08562e-11
-7.99361e-12
4.88498e-12
-1.68754e-11
1.42109e-11
3.10862e-12
3.9968e-12