/*--------------------------------*- C++ -*----------------------------------*\
  =========                 |
  \\      /  F ield         | OpenFOAM: The Open Source CFD Toolbox
   \\    /   O peration     | Website:  https://openfoam.org
    \\  /    A nd           | Version:  10
     \\/     M anipulation  |
\*---------------------------------------------------------------------------*/
FoamFile
{
    format      ascii;
    class       volScalarField;
    location    "0.1";
    object      gradTy;
}
// * * * * * * * * * * * * * * * * * * * * * * * * * * * * * * * * * * * * * //

dimensions      [0 -1 0 1 0 0 0];

internalField   nonuniform List<scalar> 
46825
(
-2.98172e-13
0
0
2.08203e-12
1.03996e-12
-1.48566e-12
4.46156e-13
-8.93626e-13
1.49078e-13
7.45498e-13
1.77488e-12
1.18533e-14
2.18809e-12
3.99951e-12
2.03013e-13
-1.50877e-12
7.32036e-13
8.00677e-13
4.512e-13
7.74353e-13
5.19712e-13
-1.8223e-13
5.13829e-13
-2.02297e-12
-1.43288e-12
-2.05671e-13
1.74917e-13
5.12381e-12
-2.06028e-13
-5.85833e-13
-3.97777e-12
-3.38221e-13
-2.04763e-12
-2.0971e-12
8.96187e-14
2.42416e-13
-2.78375e-14
2.91346e-12
-4.84493e-13
3.15537e-13
1.87864e-12
-4.81572e-14
1.16329e-12
2.43283e-12
2.5692e-14
1.95299e-12
-6.12338e-15
-2.5203e-12
-4.09473e-14
-2.41753e-13
2.497e-12
1.9833e-12
1.43246e-12
1.82909e-12
-6.1779e-13
1.11026e-12
1.53116e-14
-2.40538e-12
-1.08153e-13
-1.05111e-13
-1.41605e-12
4.28039e-14
-1.69542e-12
1.45521e-12
1.03574e-13
-2.33596e-12
-2.86981e-14
-1.85525e-12
1.11633e-13
2.84099e-13
-6.28292e-13
-1.60931e-12
-3.28954e-12
-1.77642e-12
5.21225e-13
-7.91219e-13
2.28808e-14
2.50478e-13
1.03066e-13
-3.83379e-13
-1.47535e-13
2.07508e-13
-1.80003e-14
-2.12232e-12
2.53838e-14
-1.15381e-13
-4.04918e-13
1.55735e-12
4.474e-14
2.02029e-14
0
-1.49096e-13
1.78751e-12
-7.43695e-13
0
0
2.9749e-13
-1.04278e-12
0
-2.98252e-13
0
1.49346e-13
0
-2.38777e-12
1.34269e-12
0
-5.96944e-13
-1.64273e-12
0
-1.49216e-12
2.71218e-14
-5.69856e-15
1.34683e-12
6.72993e-13
-7.10502e-13
-7.85306e-13
-2.61727e-13
-3.47945e-12
-1.70891e-13
-2.04004e-12
3.08709e-14
-3.82521e-13
-4.87346e-12
3.27846e-12
-3.97025e-12
-1.37215e-12
-9.43289e-13
2.11899e-12
1.10526e-13
-1.44286e-13
-1.98148e-13
1.81399e-13
1.29734e-13
-2.65331e-13
2.74277e-12
2.16869e-12
3.003e-13
-7.91769e-13
9.85627e-13
9.35392e-14
-7.61812e-14
1.11673e-13
4.28067e-12
-2.15691e-13
3.91236e-12
4.15379e-12
6.10485e-13
-1.42027e-13
-1.2159e-13
3.45506e-13
-1.65343e-14
1.60039e-12
-4.96658e-14
6.8057e-14
-4.26205e-12
-4.58007e-12
6.27873e-12
3.23969e-13
-1.05148e-12
-3.70002e-14
3.37674e-13
-2.23173e-13
-3.09901e-13
-3.91471e-13
-4.28076e-13
-2.38508e-13
-6.94543e-12
4.27443e-12
-2.7521e-12
1.97463e-13
-1.96331e-12
-1.50952e-12
-3.79899e-12
-2.7686e-12
-3.31787e-12
-2.65597e-13
3.94644e-13
-3.02424e-12
-4.07839e-14
4.49927e-13
1.74156e-13
5.17091e-13
-2.99373e-13
6.73121e-13
7.479e-14
6.73116e-13
-3.3657e-13
-1.23497e-12
3.06159e-12
-2.49275e-12
1.64142e-12
4.48054e-13
-4.47996e-13
1.49228e-13
4.47528e-13
-1.79015e-12
4.47715e-13
2.38954e-12
0
-2.38767e-12
-4.92239e-12
0
-2.98301e-12
-1.19217e-12
2.68289e-12
1.49046e-13
-4.91751e-12
8.94915e-13
1.49293e-13
2.98382e-13
-8.56572e-13
4.10833e-13
-3.1233e-12
-3.86576e-12
-1.68494e-12
-1.8915e-12
-3.31193e-12
5.36688e-14
-5.04757e-13
2.47442e-13
4.86906e-12
2.29886e-13
-4.565e-12
3.93057e-12
2.90147e-13
-4.48341e-12
-2.32388e-13
-4.96368e-13
4.48129e-13
2.3058e-12
-1.87662e-12
9.19788e-14
9.50211e-12
-6.32395e-09
-9.33743e-09
-9.59493e-09
-8.22956e-09
6.87185e-12
-4.44709e-13
-3.22272e-12
-2.17597e-12
-9.16074e-14
-9.10618e-12
-6.86301e-10
1.34885e-10
1.51146e-10
7.96812e-11
5.21242e-12
-4.69155e-13
-2.38912e-12
-1.12724e-13
3.89327e-12
1.02335e-11
1.99273e-10
-3.07461e-11
-4.1381e-11
-2.19831e-11
-2.38821e-12
1.96079e-12
3.08907e-12
1.7608e-13
-9.25316e-12
-2.28614e-12
2.63547e-09
-2.57153e-10
-2.73229e-10
-8.95048e-11
-1.21916e-11
-1.82446e-12
2.0937e-12
-2.27138e-13
1.02559e-11
1.0644e-13
-4.14902e-11
-4.8133e-11
-5.05689e-11
-8.53704e-12
-1.43078e-12
8.91422e-13
5.33157e-13
5.83028e-14
-4.62625e-12
-3.5151e-12
3.6573e-12
6.03813e-13
-3.05608e-12
-2.65358e-14
2.11181e-12
-6.91671e-13
-1.62194e-12
-1.49171e-13
0
0
-1.34069e-12
-8.94031e-13
2.98019e-12
5.95909e-13
1.49113e-13
-7.46311e-13
-4.47561e-13
-3.86902e-12
3.12105e-12
-5.9072e-13
-5.86998e-13
0
-1.31861e-12
-1.61389e-12
-1.03374e-12
-7.4327e-13
-1.48854e-13
-1.04704e-13
6.7391e-12
-8.42879e-13
3.72835e-10
3.718e-10
3.63385e-10
3.70778e-10
2.228e-10
-1.26269e-12
-2.21439e-12
5.28891e-12
-4.14323e-12
-3.47485e-11
8.54935e-07
8.77346e-07
8.84536e-07
8.69795e-07
9.18803e-07
2.31341e-10
1.29474e-13
1.88997e-13
-2.50107e-12
-3.82027e-09
-0.169335
-0.254982
-0.256204
-0.2532
0.0218568
2.28485e-10
2.40039e-13
-3.45444e-12
-5.07687e-12
-3.49299e-11
-0.000862787
-0.00295559
-0.00308057
-0.00280685
0.000131766
-2.07825e-12
1.79167e-12
-1.02822e-12
4.41809e-12
1.5452e-10
7.73609e-05
0.00019307
0.000189787
0.000189067
3.37032e-05
8.26844e-13
1.94367e-12
1.83754e-12
-3.31547e-13
3.44772e-10
0.00464959
0.00850972
0.00861041
0.00852656
-0.000104972
-4.4224e-12
-2.43206e-12
5.75184e-13
2.51632e-12
8.73667e-09
-0.000139158
0.164082
0.164891
0.162474
-0.00111697
-1.10321e-10
-1.48483e-13
-2.32277e-13
4.48543e-13
5.22632e-09
1.34277e-08
6.92863e-09
6.25443e-09
8.06449e-09
-1.56541e-08
4.65425e-12
1.23687e-12
-1.48808e-13
-3.26859e-12
1.62361e-12
-1.17327e-12
2.92933e-13
0
-2.93336e-13
2.21426e-12
5.94418e-13
4.46502e-13
-2.97237e-13
1.18719e-12
-1.32305e-12
-3.48569e-12
-3.75968e-12
-1.44583e-13
-3.04838e-12
1.61651e-12
-3.85906e-12
0
1.70752e-12
1.77909e-13
-6.64932e-12
-2.08593e-09
-2.58263e-09
-2.29468e-09
-3.01468e-09
-3.66998e-10
-2.74989e-12
-1.91084e-12
1.81324e-13
4.41897e-12
-9.38111e-08
0.0189433
-0.144469
-0.144853
-0.144234
0.00635055
3.80829e-10
-1.87535e-12
-1.5429e-12
-2.15217e-11
0.00343566
-6.84574e-08
1.79126e-12
-1.64522e-12
8.0041e-12
8.73341e-05
1.84607e-08
4.63551e-12
2.27299e-13
-1.52801e-12
1.44551e-05
-2.05628e-09
-3.59566e-13
1.58474e-12
-1.24938e-11
-0.000145582
-5.77076e-08
-3.18393e-12
-1.96335e-12
-4.46914e-12
0.000138392
5.00837e-08
-1.72667e-12
-8.92337e-13
2.42364e-13
3.16901e-08
-2.50237e-06
1.26362e-05
1.26576e-05
1.26625e-05
-1.39531e-06
-1.68769e-13
2.17863e-12
4.4586e-13
8.90069e-13
-2.35044e-12
7.25618e-13
2.31276e-12
4.33647e-13
8.70763e-13
2.79131e-12
1.63217e-12
3.56761e-12
2.22997e-12
2.37705e-12
-2.05999e-12
5.80507e-13
-1.44354e-13
1.58767e-12
4.35124e-13
5.8822e-13
-1.4857e-13
-1.4871e-13
-2.48974e-13
1.92428e-12
-5.81088e-12
1.23342e-09
-2.94236e-09
-2.50294e-09
-3.40077e-09
-4.07275e-10
-7.14008e-13
-2.05399e-13
-2.65599e-12
2.96931e-13
-9.69117e-08
-0.121487
-0.150861
-0.15128
-0.150418
0.00660084
3.11281e-10
-1.91497e-12
2.79063e-14
-3.09267e-11
0.0042378
-1.67375e-07
2.52426e-12
3.55308e-13
1.51833e-11
0.000112867
3.01239e-08
4.15571e-12
-2.23969e-12
4.67445e-12
2.27249e-05
-3.77288e-09
-4.27115e-12
1.78534e-13
-3.80068e-11
-0.000201343
-1.098e-07
-3.63609e-12
-1.41471e-12
3.67811e-12
0.000161693
5.63424e-08
2.06557e-12
4.99439e-13
-5.90233e-14
3.24271e-08
-2.32101e-06
2.08799e-05
2.09591e-05
2.02438e-05
-1.46785e-06
2.67112e-12
3.69595e-12
3.12206e-12
1.3365e-12
-3.23429e-12
1.45015e-13
1.29876e-12
2.02028e-12
-2.90028e-13
-4.11645e-12
-2.22789e-12
1.48697e-12
4.16498e-12
3.71717e-12
-3.68135e-12
1.45204e-13
5.77658e-13
1.58839e-12
2.61235e-12
0
2.8253e-12
-1.48796e-13
1.73764e-12
6.02933e-12
-3.3554e-12
1.49888e-09
-2.46954e-09
-2.18012e-09
-3.11531e-09
-4.15891e-10
4.08779e-13
-3.29272e-13
-1.37971e-14
2.97486e-13
-9.73883e-08
-0.121714
-0.151172
-0.151585
-0.150679
0.00661197
3.25e-10
-1.46866e-13
1.54784e-13
-3.56238e-11
0.00425855
-1.80106e-07
6.96808e-13
-1.98021e-12
1.21319e-11
0.000113075
2.83571e-08
-1.75899e-13
-5.30797e-13
-7.04604e-12
7.60927e-06
-5.00174e-09
5.95069e-14
-6.52781e-13
-2.00209e-11
-0.000216766
-1.13461e-07
8.55618e-13
4.46576e-13
-4.28207e-12
0.000162472
5.63849e-08
-5.54882e-14
3.21e-13
-2.38677e-13
3.24986e-08
-2.35496e-06
2.09653e-05
2.10498e-05
2.03197e-05
-1.47535e-06
3.6861e-12
-6.2719e-13
-2.97522e-13
0
3.38426e-12
0
-2.0212e-12
-4.33116e-13
0
2.5014e-12
-5.94611e-13
2.97578e-13
2.97648e-13
-4.01673e-12
1.17871e-12
0
-1.44514e-13
-1.01148e-12
0
2.79803e-12
-2.67801e-12
1.48866e-13
-2.6193e-12
-3.3193e-12
1.49053e-13
1.52264e-09
-2.48995e-09
-2.14494e-09
-3.10196e-09
-4.19132e-10
-3.40536e-12
1.82588e-13
-2.17721e-13
-1.38834e-13
-9.67714e-08
-0.121712
-0.151184
-0.151602
-0.1507
0.00661594
3.158e-10
-2.38677e-14
9.38389e-13
-3.3474e-11
0.0042528
-1.80266e-07
-8.02583e-14
-5.83249e-13
1.16735e-11
0.000113079
2.78685e-08
-1.09705e-13
1.82632e-12
-2.32995e-12
7.61228e-06
-6.42425e-09
-1.60879e-14
4.54008e-15
-2.76418e-11
-0.000216774
-1.45721e-07
-2.32696e-14
-1.05886e-13
-4.64145e-13
0.00016346
3.11308e-08
5.87016e-14
-2.35481e-13
1.16375e-12
3.24721e-08
-2.35387e-06
2.09755e-05
2.10583e-05
2.03278e-05
-1.47541e-06
1.45619e-12
1.5212e-13
0
-1.33841e-12
-2.35562e-12
-1.45198e-12
-2.74501e-12
7.22374e-13
7.25996e-13
8.83388e-13
1.04112e-12
-1.48862e-13
-2.38209e-12
1.48824e-13
-1.47421e-13
-2.32731e-12
-3.18405e-12
1.30246e-12
-3.05327e-12
-1.32621e-12
1.48838e-13
0
-4.48201e-12
-4.10897e-13
-1.19241e-12
1.36511e-09
-2.73112e-09
-2.44121e-09
-3.34373e-09
-4.06655e-10
-9.24117e-13
5.45787e-13
2.05097e-12
-6.03925e-13
-9.6598e-08
-0.121665
-0.151084
-0.151493
-0.150596
0.00660867
3.24488e-10
3.32051e-13
1.93994e-12
-2.84913e-11
0.00425115
-1.77845e-07
1.9705e-13
5.39125e-14
1.10331e-11
0.000113006
2.71519e-08
-1.95622e-12
-2.8676e-13
-1.23805e-12
7.60767e-06
-6.20826e-09
-3.18846e-12
-1.66188e-12
-2.86594e-11
-0.000216649
-1.22615e-07
2.16294e-12
5.61427e-14
-4.82562e-13
0.000162496
1.15467e-07
3.19347e-12
8.11386e-15
3.60495e-12
3.2477e-08
-2.26546e-06
2.09201e-05
2.10002e-05
2.02884e-05
-1.47004e-06
5.27295e-13
-1.08886e-13
1.48893e-13
1.48768e-13
4.27219e-12
-4.36117e-13
-2.89396e-13
1.44698e-12
-2.90745e-13
5.8929e-13
3.57093e-12
0
0
7.44302e-13
-1.47522e-12
-7.28832e-13
-2.3227e-12
-1.45158e-13
0
-5.89941e-13
5.95533e-13
1.4896e-13
2.17966e-14
1.10269e-13
-3.20422e-12
2.74733e-09
2.48235e-09
2.84089e-09
1.76301e-09
-4.20782e-10
7.05603e-13
-2.75443e-13
1.76314e-12
4.78005e-12
-9.59988e-08
-0.119767
-0.146787
-0.147105
-0.146427
0.00644777
2.8291e-10
-4.87263e-13
4.14253e-13
-4.80804e-11
0.00363199
-1.17216e-07
1.171e-13
-1.82158e-12
-1.61403e-11
8.82344e-05
-1.15723e-09
4.06757e-13
-3.00343e-12
5.58071e-12
7.37431e-06
8.46447e-11
2.67199e-13
2.45684e-13
1.14284e-11
-0.000153644
2.78342e-09
-3.89938e-13
2.05079e-12
-1.71867e-12
0.000149751
4.48023e-08
-7.3746e-14
-2.04025e-13
1.10646e-12
3.21249e-08
-5.18929e-06
-3.69906e-06
-3.84606e-06
-2.60253e-06
-1.34185e-06
3.25683e-12
1.1075e-13
-1.4893e-13
2.97625e-13
1.17954e-12
-3.35103e-12
-7.25666e-13
1.16108e-12
-2.91397e-13
-3.24387e-12
-2.9768e-13
0
7.44713e-13
2.97739e-12
1.47498e-13
7.28704e-13
-1.16131e-12
5.80645e-13
-4.95483e-12
0
8.93351e-13
1.48968e-13
-2.2309e-12
3.51401e-12
7.60509e-13
2.93519e-13
-4.08629e-13
8.83455e-13
-3.8186e-12
-1.3561e-12
-1.21895e-12
3.06698e-13
-1.71294e-12
-1.78595e-12
-4.46483e-10
-7.52215e-07
-7.85767e-07
-7.86449e-07
-7.858e-07
-6.04692e-07
3.91957e-12
1.36594e-12
-3.15892e-14
7.04364e-12
6.85409e-09
-2.57118e-11
-5.2932e-14
-3.45508e-13
-5.06149e-12
1.92449e-10
-1.48732e-12
-1.98892e-12
-2.14675e-12
3.82807e-12
-3.17506e-11
-4.11856e-13
-4.08091e-13
6.33907e-13
-4.50022e-12
-2.85144e-10
6.0519e-12
1.96097e-13
1.80341e-12
-1.47285e-12
-5.6456e-08
-2.3454e-10
7.08032e-13
-3.15902e-13
3.91129e-12
6.64665e-11
-2.27173e-09
-2.38828e-09
-2.38909e-09
-2.36202e-09
5.15815e-09
3.91449e-12
5.60191e-13
1.48953e-13
-2.97658e-13
-2.94904e-13
0
2.9028e-13
-3.04794e-12
-1.45704e-13
2.9491e-13
0
1.48964e-13
-4.46831e-13
0
0
-7.27077e-13
-2.89468e-12
-4.19733e-12
4.36256e-13
-1.91616e-12
1.33987e-12
1.19166e-12
1.56957e-14
2.98138e-13
-3.76786e-12
-2.92748e-13
-3.22257e-12
-2.93196e-13
-2.92568e-12
-2.89865e-12
2.38911e-12
1.01704e-12
6.48372e-13
-2.97817e-13
-6.11983e-13
6.10962e-13
-5.11721e-13
2.26124e-13
7.5136e-12
-1.58163e-12
6.02678e-13
-1.99649e-12
2.77143e-12
4.39104e-12
1.14234e-11
-9.63267e-14
-6.14276e-13
-3.11347e-13
-7.3238e-12
-1.12023e-13
-2.62492e-13
1.88331e-12
-2.37459e-12
3.51826e-12
-1.63993e-14
-5.17496e-12
-1.48467e-12
2.75268e-12
2.92563e-13
-4.91446e-13
4.55971e-12
-1.6057e-12
-8.98156e-14
-4.11894e-12
-1.59532e-11
8.77553e-13
2.17142e-12
-2.44689e-12
4.47959e-12
-1.65619e-12
2.17587e-13
3.29116e-12
1.46546e-12
2.62276e-12
-7.31297e-14
5.1219e-12
1.63637e-12
1.48945e-13
1.48817e-12
-1.47362e-13
0
5.78865e-13
8.68288e-13
-1.45391e-13
-7.36742e-13
-4.1673e-12
0
0
6.54894e-12
-5.89274e-13
-2.90543e-13
1.87905e-12
-2.16815e-12
-8.71667e-13
5.89345e-13
-1.19082e-12
2.97885e-13
-4.99889e-14
2.38535e-12
7.30771e-13
2.92689e-13
3.22124e-12
-2.93084e-12
0
3.67244e-12
2.38948e-12
4.49013e-14
-6.84649e-14
3.27651e-12
-8.57129e-12
-7.70146e-12
2.50748e-12
4.72653e-12
1.17761e-12
-7.48942e-12
3.10117e-12
-2.37055e-13
-9.57478e-14
-2.92689e-13
0
9.41945e-13
-2.70807e-13
1.22089e-13
0
7.66712e-12
2.26394e-13
1.12064e-13
-6.69046e-13
0
-8.27138e-12
3.6697e-13
2.21678e-12
1.02145e-13
-3.80181e-12
-5.888e-13
5.60193e-12
-2.86382e-12
2.47146e-12
3.82504e-12
3.15075e-13
-5.36766e-12
-2.28155e-12
1.72394e-12
-2.98673e-12
0
2.18437e-13
2.1968e-13
1.17407e-12
4.59471e-12
-3.2939e-12
0
2.42498e-12
0
0
-2.50416e-12
0
1.87882e-12
1.58978e-12
-2.90504e-13
1.03104e-12
-4.46435e-13
5.95761e-13
5.95711e-13
2.97664e-13
0
1.16193e-12
2.31207e-12
-5.7802e-13
-4.35738e-13
-1.62044e-12
-2.97677e-12
2.38291e-12
8.98754e-13
6.26811e-13
-4.26482e-13
-4.44955e-13
2.05025e-12
-2.93136e-13
-5.84976e-13
-2.27645e-12
-4.18188e-12
1.30196e-13
-2.98861e-13
-5.95769e-13
-6.73562e-12
-7.78686e-13
1.32142e-12
1.18199e-12
1.17784e-12
4.753e-12
-3.01977e-13
-7.34639e-13
-1.84708e-12
-2.22964e-14
-5.81193e-13
-2.22571e-13
-4.68151e-13
7.25288e-14
-4.39308e-12
-2.94955e-12
8.66408e-14
-1.72612e-12
1.86888e-12
4.1037e-12
-7.09188e-12
4.63153e-14
2.2834e-12
-3.23955e-13
5.84978e-13
1.76675e-12
1.82519e-12
-8.33959e-14
2.14138e-12
-5.88444e-13
-1.15468e-11
-1.46409e-12
-1.79773e-12
2.37097e-13
2.98694e-12
5.1546e-13
4.36034e-13
-4.39619e-13
8.80998e-13
-2.11589e-12
-4.09998e-12
-3.73468e-12
2.86843e-13
-2.23393e-12
-1.48796e-12
0
5.80911e-13
-1.4449e-12
-1.01142e-12
-2.3236e-12
2.79831e-12
1.93445e-12
4.46789e-13
1.7872e-12
4.46497e-13
1.47319e-13
7.26431e-13
-3.46952e-12
2.89126e-13
-2.32457e-12
2.9464e-13
0
-1.78725e-12
-5.75283e-13
2.80355e-12
-4.19483e-13
1.60924e-13
-3.19602e-12
2.25574e-12
2.63204e-12
-2.69766e-12
1.71243e-13
-2.3093e-12
1.50393e-12
-1.78714e-12
7.06897e-12
6.6968e-13
6.64037e-12
-1.77289e-12
-3.53333e-12
6.33761e-12
0
1.86983e-14
2.51225e-12
-7.52244e-13
5.81142e-13
5.70043e-13
-1.63707e-13
1.02992e-12
4.3922e-13
2.94948e-12
-4.29315e-12
-1.90004e-13
-3.94002e-13
9.11412e-13
-5.90961e-12
3.00707e-12
3.79172e-13
-1.9789e-12
-1.16978e-12
0
-3.66993e-13
1.6985e-12
-1.86851e-12
8.23747e-12
3.96121e-13
-4.03932e-12
-1.87933e-12
-5.24922e-13
-6.41683e-12
-5.09293e-12
-5.08694e-13
1.39183e-12
2.93587e-12
-4.23077e-12
3.22102e-12
3.7554e-12
-1.49523e-12
1.48931e-12
-1.6368e-12
0
-2.90529e-12
-1.44546e-13
4.19186e-12
1.45267e-13
1.4729e-13
8.9283e-13
1.78722e-12
2.68093e-12
1.48844e-12
1.47385e-13
0
1.15859e-12
7.24109e-13
2.03656e-12
4.42148e-13
-1.48847e-13
-3.57479e-12
-1.31613e-12
-2.08657e-12
1.78662e-12
-1.05894e-12
-1.69062e-12
2.93072e-13
1.8621e-12
-1.07333e-12
-1.49288e-12
-1.70338e-12
-1.92901e-12
-2.08419e-12
-3.5172e-12
-9.16608e-13
3.17723e-13
0
5.88424e-13
-2.87957e-12
0
1.62316e-12
1.85999e-12
9.11151e-13
-8.71227e-12
-4.57179e-13
-1.54824e-13
1.36889e-13
6.76015e-13
-7.07266e-12
-3.33641e-13
-3.7199e-13
1.98935e-12
0
0
-1.86092e-13
1.71257e-13
-2.62521e-13
-4.699e-12
-8.2372e-12
9.39225e-14
2.49446e-13
5.21016e-14
3.5292e-12
1.70961e-13
5.57688e-13
-2.86402e-13
1.82102e-13
1.05934e-12
-1.15273e-12
-1.74229e-12
-3.65759e-13
7.32903e-13
8.01478e-13
8.77622e-13
-4.82104e-13
-8.39761e-14
-1.48948e-12
5.65476e-12
1.32619e-12
-2.90905e-13
-3.76492e-12
-2.89608e-13
-4.36345e-13
1.03147e-12
3.27401e-12
2.97897e-13
0
0
1.47522e-12
2.33275e-12
-5.80951e-13
-8.71397e-13
1.02045e-12
2.95014e-13
1.04226e-12
1.48985e-13
1.95411e-13
-9.29157e-13
4.4473e-13
3.37293e-12
-1.26432e-12
-1.50617e-12
6.42138e-13
-3.27684e-13
3.1825e-12
1.62087e-13
1.6993e-14
8.92868e-13
-1.3221e-12
3.39497e-12
1.15544e-11
2.36659e-12
-4.2095e-12
-2.86548e-12
-3.61259e-12
-4.63744e-14
7.6865e-14
-7.92964e-13
7.56851e-12
1.85766e-13
-1.41064e-13
-2.89794e-13
5.58699e-12
-6.39308e-13
-7.37139e-13
7.51967e-14
-8.79276e-15
-5.175e-12
0
-3.50283e-12
3.92836e-14
-3.26571e-13
2.51813e-13
-6.06288e-12
4.09842e-12
-1.31535e-13
1.18701e-13
-1.42234e-14
-2.92666e-12
3.04255e-12
-1.71296e-12
9.75346e-14
3.23014e-12
6.03348e-13
-1.59897e-13
2.72677e-12
3.02687e-12
-3.67064e-12
-4.31005e-12
-2.5785e-12
-7.54048e-13
-1.4898e-13
-5.95427e-13
1.4749e-13
0
-1.45213e-13
1.45212e-13
3.78962e-12
3.09695e-12
0
1.34087e-12
2.08552e-12
0
7.37727e-13
5.82853e-13
0
0
-7.28343e-13
-1.03255e-12
1.48922e-13
1.93704e-12
-1.01478e-12
2.32988e-13
4.17252e-12
-5.52973e-12
-4.73274e-12
5.58932e-12
4.29825e-12
5.01865e-14
-1.93605e-12
3.4822e-13
-1.68827e-12
-2.97779e-13
-1.22842e-11
7.4196e-12
9.83111e-12
4.92215e-12
3.12484e-12
-3.15675e-12
-1.95039e-12
-3.80084e-12
1.46296e-12
7.80204e-13
-2.78483e-13
1.92846e-12
7.70986e-14
4.88675e-15
-2.92675e-12
-7.26988e-12
-4.68863e-13
1.96659e-12
-4.03703e-14
5.88307e-13
1.23406e-12
-5.35625e-12
-2.00199e-12
-3.81224e-14
1.19366e-12
-6.77338e-12
8.90936e-12
-2.91035e-13
-1.84377e-13
1.61916e-13
-1.05827e-12
-3.00167e-12
1.74085e-12
4.43444e-13
-3.90184e-15
-5.33459e-12
1.38587e-12
2.6534e-12
8.85992e-13
-2.2027e-13
1.46455e-12
6.51359e-13
1.53053e-13
2.98001e-13
-4.91321e-12
2.94951e-13
8.73899e-13
0
0
1.31077e-12
-8.84779e-13
-3.87094e-12
2.98001e-13
0
7.44451e-13
7.37339e-13
5.81818e-13
2.89397e-13
-5.78735e-13
5.81547e-13
5.89595e-13
-5.95588e-13
-2.38388e-12
-4.92596e-14
2.98173e-13
2.53708e-13
-5.05065e-12
-8.78508e-13
-4.10324e-12
-4.97237e-12
4.56181e-12
-2.98717e-13
-2.04663e-12
2.11251e-13
3.57426e-12
-6.83869e-14
7.2613e-12
1.29528e-11
8.84644e-12
4.70342e-12
-1.29542e-12
3.64139e-12
6.8217e-14
-5.82803e-13
-2.42763e-12
-1.04254e-11
-2.75168e-12
1.87815e-12
-1.47418e-13
-8.78425e-13
-5.88753e-13
1.06255e-13
3.41254e-13
5.95058e-13
4.10303e-12
0
-4.69799e-13
-1.54348e-12
3.39584e-13
-3.7846e-12
-1.17585e-12
5.69251e-14
2.56172e-12
-2.07261e-12
0
1.22325e-11
-5.02872e-14
2.99559e-12
2.40824e-12
4.99743e-12
-3.98566e-12
6.5352e-13
-2.5605e-12
-4.25089e-12
3.27891e-12
4.60964e-12
5.57083e-13
1.91365e-12
4.32087e-12
1.78633e-12
5.89436e-13
1.74434e-12
1.4466e-13
1.4466e-13
5.81435e-13
-2.2103e-12
4.46578e-13
4.46999e-13
-5.95845e-13
2.97781e-13
-2.65397e-12
0
-1.44589e-13
-1.44574e-13
-4.35914e-13
-2.94722e-13
-4.46687e-13
0
1.53253e-12
1.58409e-12
-3.08788e-12
4.66322e-12
-3.08738e-13
-3.55753e-13
1.43826e-13
-4.12998e-12
6.1388e-12
-8.95462e-13
6.83112e-13
-8.34003e-12
1.22764e-12
-3.15659e-12
-1.17952e-11
1.18181e-12
-2.35538e-12
8.35427e-12
-5.13328e-12
2.45221e-12
-1.77243e-12
4.56037e-12
-2.89878e-12
1.27497e-12
1.19804e-12
-1.13496e-13
-4.41794e-13
0
-6.63318e-13
-2.56261e-12
1.6799e-14
-5.28847e-14
5.31807e-12
5.42066e-13
-2.21272e-12
-2.83778e-14
-3.2346e-13
0
-1.74378e-13
-6.18654e-14
-1.07924e-13
5.88444e-13
-1.21523e-12
-5.32926e-13
1.80318e-12
2.36996e-14
-3.70569e-12
-5.58663e-12
-2.03493e-12
-1.02554e-12
-9.54093e-13
-3.79305e-12
-4.39242e-13
-7.89195e-13
4.12129e-13
0
-7.44303e-13
2.0626e-12
-3.34148e-12
-7.22751e-13
-2.1682e-12
-1.45277e-13
-3.5358e-12
-2.67944e-12
0
0
2.97871e-13
-8.84929e-13
3.34525e-12
-1.88068e-12
2.45909e-12
5.23348e-12
-7.37086e-13
5.95772e-13
1.49057e-13
3.16584e-13
1.12503e-12
5.40182e-12
3.435e-12
-5.50371e-12
3.52391e-12
5.24907e-12
1.77791e-13
-3.18134e-12
-4.00141e-12
1.65946e-12
0
-5.09336e-12
4.43846e-13
4.71865e-12
0
0
2.59225e-12
3.62387e-12
-2.51322e-12
-4.01906e-13
-1.52555e-13
6.37787e-12
-3.76003e-12
2.00086e-12
-1.52722e-12
-3.48866e-13
6.48816e-12
3.40763e-12
4.38145e-13
4.4098e-13
1.23461e-12
0
-3.41926e-12
5.38173e-14
-3.36157e-13
-1.09379e-12
0
3.80919e-12
-1.9364e-12
-3.30567e-12
0
-1.21529e-13
-2.92777e-13
-2.83894e-13
1.58433e-13
-1.50583e-13
1.15134e-12
-1.30817e-12
-4.39568e-13
-3.37653e-12
-7.95131e-12
1.39095e-12
-7.51564e-13
1.81952e-12
2.98113e-12
-1.63801e-12
-1.47386e-13
1.45353e-13
-1.44632e-13
4.33892e-13
4.36054e-13
7.36904e-13
1.34016e-12
1.49064e-13
0
-7.45265e-13
1.32908e-12
3.79016e-12
2.75659e-12
-1.4507e-13
-1.89435e-12
2.21445e-12
5.81354e-12
2.08826e-12
-2.18718e-12
3.43254e-12
4.77117e-14
2.74349e-12
7.16481e-12
1.65207e-12
-5.4567e-12
2.51789e-12
5.32137e-12
2.0384e-12
1.54536e-12
-4.46675e-12
-3.58591e-13
-1.00288e-12
-1.27775e-11
-9.18257e-13
4.87896e-12
1.58398e-12
-5.43282e-12
-1.62074e-12
4.61738e-12
-1.39722e-13
-5.7976e-13
4.5564e-12
7.29948e-14
4.37058e-14
6.4199e-13
1.17918e-12
2.9632e-13
2.12203e-12
-2.28408e-12
-5.90149e-14
1.7183e-11
-5.54806e-14
3.70033e-13
-3.70816e-12
-5.86714e-13
3.31117e-13
-2.52763e-13
-2.27976e-13
1.55692e-14
5.88448e-13
1.55695e-12
-8.91391e-13
-3.55538e-13
-2.5881e-13
-4.26968e-12
-3.28014e-12
3.55804e-12
3.65854e-13
-1.39278e-12
-2.91481e-13
-4.38965e-13
8.36178e-13
-1.46378e-12
-1.93909e-12
4.32222e-12
1.47603e-12
3.78824e-12
0
-2.32085e-12
2.76835e-12
2.952e-13
-1.93754e-12
-1.6409e-12
0
-1.49275e-13
-1.03759e-12
-8.80983e-13
4.39137e-13
0
1.46796e-13
-2.81587e-12
-2.98569e-12
-8.9567e-13
-3.45569e-12
-1.24599e-12
-1.15516e-12
6.5889e-13
1.8408e-13
5.38032e-13
5.07726e-12
-8.46713e-12
-7.28695e-12
6.29363e-13
-7.30558e-13
-5.96248e-13
1.08164e-11
-1.62446e-12
3.18181e-12
1.45265e-12
-5.96869e-12
1.17795e-11
4.88666e-12
1.56198e-12
1.73288e-12
-4.37134e-12
0
-4.33205e-12
-1.73872e-13
-6.86051e-14
2.11543e-13
3.37278e-12
4.45074e-12
1.96211e-13
-4.52887e-13
6.84074e-12
-5.82629e-13
3.93394e-13
-2.50151e-14
-2.5012e-12
-4.27172e-12
4.64463e-13
-3.60186e-12
9.4047e-14
4.39874e-13
2.35677e-12
-9.29149e-13
3.48924e-12
1.23757e-13
2.20253e-12
-7.6902e-13
-1.69586e-13
-1.59588e-12
-5.25952e-12
-5.12146e-13
7.27904e-13
-8.7655e-13
-3.40378e-12
-1.31815e-13
1.64206e-12
0
0
-1.02746e-12
5.85444e-13
1.46363e-13
-1.46785e-13
-2.22277e-12
-1.49274e-12
0
-1.79055e-12
-1.64254e-12
-1.3396e-12
2.96481e-13
1.48086e-13
-1.48081e-13
-8.89387e-13
-7.4418e-13
0
1.49223e-13
-1.13904e-13
3.2404e-13
-1.34028e-12
3.2469e-12
4.5789e-14
9.18879e-13
-1.10332e-14
-6.16177e-14
-4.53692e-12
8.14836e-14
2.18862e-12
-2.98783e-12
3.99096e-13
-5.88654e-12
1.15251e-11
-6.14173e-12
6.43228e-12
-1.45001e-13
5.53702e-12
-1.44733e-13
6.91093e-13
3.92662e-12
2.16876e-12
0
-2.49523e-13
-3.97463e-13
-5.42361e-12
2.58341e-13
-3.58571e-12
8.43101e-14
-6.51675e-13
4.96901e-12
-1.49134e-13
1.40123e-12
5.82849e-14
-2.25642e-12
3.79349e-13
-2.714e-12
-1.13021e-12
-1.97836e-13
2.218e-13
-8.89476e-13
-7.66887e-12
7.38953e-13
1.74169e-12
9.24032e-13
1.12131e-12
3.99846e-12
-2.03895e-12
2.72503e-12
-1.91948e-13
1.06614e-13
-7.42583e-13
1.92876e-13
-1.04577e-13
-1.64144e-12
-4.32949e-12
8.92805e-13
-4.44631e-13
0
-1.48084e-13
-5.92897e-13
2.23234e-12
0
-1.64184e-12
1.78653e-12
8.93367e-13
-5.9451e-13
-1.03854e-12
-8.89832e-13
4.44918e-13
7.41788e-13
-5.35025e-12
-2.97762e-13
-2.97756e-13
1.76805e-12
4.21434e-13
-3.59193e-12
-1.54854e-12
1.33464e-12
4.01305e-12
-3.49722e-12
5.76658e-13
-3.43056e-12
-3.39272e-13
1.70818e-12
-2.97143e-13
-1.47538e-12
2.11781e-12
1.75883e-12
-5.49763e-12
1.68505e-12
-4.69924e-12
-1.18878e-12
4.20603e-13
1.68136e-12
0
9.95943e-12
-7.27987e-13
-1.0369e-12
-1.99889e-12
1.03474e-12
1.81123e-12
8.23602e-12
1.81543e-13
-2.13127e-12
1.18708e-12
6.09918e-12
1.20819e-12
1.22959e-12
-4.41975e-12
9.18305e-13
1.38986e-12
-2.9583e-12
1.07061e-13
-1.56666e-12
-1.18756e-12
1.16799e-12
4.51062e-12
-1.06252e-12
7.01183e-13
-1.87869e-12
-8.86096e-12
-7.35654e-13
-2.51946e-13
1.55261e-13
-2.96549e-13
1.11687e-12
-4.79329e-12
1.49829e-12
2.14065e-12
4.13652e-13
9.10363e-12
-5.49465e-12
-4.07076e-13
3.27004e-12
-1.34249e-12
-4.87548e-12
2.10497e-12
-4.48385e-12
1.68833e-12
-7.8943e-13
1.62697e-11
5.99108e-12
8.34677e-14
-4.17103e-13
4.46006e-12
-1.8165e-13
7.52001e-13
5.01539e-12
-5.91222e-12
3.53377e-12
-6.8171e-12
7.56001e-15
-6.77755e-13
-3.1263e-12
-1.19088e-12
7.42867e-13
1.48327e-13
2.66918e-12
0
2.07685e-12
5.94417e-13
0
-5.95625e-13
5.93864e-13
1.78058e-12
-1.48185e-13
-2.07242e-12
-2.6638e-12
0
-5.03282e-12
-1.92633e-12
4.45133e-13
-1.78159e-12
4.88103e-13
-5.74811e-14
9.06261e-13
-2.21285e-13
1.25428e-12
-6.64041e-13
-1.25398e-12
-8.12468e-13
-1.99935e-12
1.06286e-13
3.50819e-14
-1.78213e-12
2.64798e-12
2.47369e-12
4.3748e-12
9.93094e-13
2.54349e-12
-3.6288e-13
-2.86334e-12
1.3986e-12
1.51131e-13
1.48263e-12
2.93681e-13
5.86976e-13
-3.57647e-13
-1.33694e-12
1.09274e-12
1.5297e-13
1.77015e-12
1.39477e-14
-6.28771e-14
1.85408e-12
-3.82185e-12
-2.95359e-13
2.61729e-12
3.74116e-14
-1.66837e-12
1.90089e-13
-1.92621e-12
-1.85239e-12
2.26538e-12
3.15478e-13
1.17642e-12
0
3.64111e-13
1.31607e-13
2.3275e-13
4.47404e-12
-3.76736e-12
-8.16498e-15
-3.26288e-13
-4.25272e-13
-3.52621e-12
5.89302e-13
-2.29803e-12
-1.33489e-12
-3.68614e-14
-4.33916e-12
1.84478e-12
1.53087e-13
-1.98855e-12
-2.07014e-12
4.03897e-12
-3.51665e-12
-3.97994e-12
1.20881e-12
-1.85578e-13
2.05567e-12
2.71339e-12
-1.08935e-13
1.22364e-13
-1.2401e-12
-4.81887e-12
1.9887e-13
3.3201e-12
4.05809e-13
1.84409e-13
1.47723e-13
-1.49866e-13
1.66292e-12
-1.48459e-13
2.96745e-13
1.63038e-12
0
2.36737e-12
4.43896e-13
-7.4002e-13
-2.07428e-12
0
0
-1.03743e-12
2.22194e-12
1.03614e-12
-1.47941e-13
0
-1.77504e-12
-1.18353e-12
1.33215e-12
0
0
-1.24133e-12
1.03707e-12
-1.92167e-12
-3.49488e-13
8.30587e-14
-1.38434e-12
-6.34885e-15
4.03853e-12
2.0618e-12
1.75793e-12
1.44138e-12
4.94635e-13
-1.66214e-13
-5.02032e-13
-1.66255e-12
1.8865e-13
1.03763e-12
2.21616e-12
2.69e-13
1.52674e-14
1.938e-12
-5.56164e-13
4.72758e-12
1.0303e-13
-9.45606e-14
-8.37099e-14
-1.8094e-13
-1.00751e-13
-3.30292e-12
-3.33384e-12
1.19052e-13
-5.22883e-12
-1.41307e-13
1.39747e-13
1.99999e-12
1.44865e-15
7.60959e-14
-3.27526e-12
9.89314e-14
-2.61597e-13
2.68816e-12
6.14917e-13
-3.04606e-12
1.89616e-12
-1.44143e-13
-1.77195e-13
6.65012e-13
-4.13783e-12
8.79805e-13
1.9095e-12
2.54901e-13
2.19508e-12
1.63967e-13
1.55035e-12
-5.23573e-13
-2.08672e-12
6.05186e-14
1.22659e-12
1.45576e-13
-1.49949e-12
-2.42588e-12
-3.9449e-13
2.44482e-13
-1.58964e-12
1.0301e-13
9.21928e-14
1.67799e-12
1.69486e-12
-5.01998e-13
1.7142e-13
-2.6792e-12
-2.37207e-12
-3.66765e-13
-1.86071e-12
9.63651e-14
1.65206e-12
5.22487e-14
-1.1453e-13
-5.09729e-14
1.55631e-12
-1.92655e-12
-2.51799e-12
0
2.95826e-13
-2.95764e-13
-4.43633e-13
-2.21854e-12
1.47991e-13
1.48111e-13
1.482e-13
2.81307e-12
2.36821e-12
-4.43868e-13
2.21873e-12
-1.62693e-12
-5.916e-13
0
2.95897e-13
-1.33207e-12
1.62857e-12
5.60694e-13
-9.87745e-14
9.13785e-14
2.05146e-12
-1.74052e-12
-9.13914e-14
-2.54453e-14
-1.18156e-13
-1.65033e-12
1.69724e-12
-2.83612e-12
-1.12037e-12
1.06878e-12
-4.17138e-14
-3.72776e-13
4.45382e-13
4.89255e-14
-5.98976e-13
-6.42324e-13
-1.69041e-12
-6.0524e-13
2.68156e-13
2.25163e-14
-4.26668e-14
8.56719e-14
-1.52176e-12
-2.12926e-14
1.44624e-13
7.71734e-14
-3.41738e-12
-5.97316e-13
-9.77696e-14
-2.51826e-12
3.86099e-14
6.61987e-13
-1.5986e-12
-7.51756e-14
-4.88163e-13
-1.33805e-13
-1.54591e-13
1.79312e-12
9.70904e-15
-4.99619e-13
-3.64691e-13
2.76372e-13
1.45455e-12
2.1585e-12
1.43819e-12
-2.03944e-12
1.63852e-12
6.27844e-13
-1.62421e-12
1.12157e-12
-1.03502e-13
-5.51712e-14
1.86262e-12
-1.76067e-14
8.02804e-13
1.4603e-13
3.20039e-13
-1.94053e-12
2.53126e-13
5.42749e-13
5.11531e-14
-2.246e-12
5.23838e-14
-1.5622e-12
-1.73068e-12
1.68536e-12
-1.76623e-13
1.70527e-12
1.82641e-12
-1.2959e-12
3.57253e-15
8.9299e-13
2.57614e-12
1.96746e-12
-2.12875e-13
-2.82533e-14
-2.26493e-13
1.33241e-12
1.77601e-12
-1.77521e-12
5.9153e-13
2.80936e-12
2.36573e-12
1.47875e-12
1.47923e-13
-1.47988e-13
0
4.4393e-13
0
-1.62717e-12
2.95805e-13
0
1.77471e-12
-7.39494e-13
-2.21877e-12
1.47947e-13
0
2.51517e-12
5.55231e-13
-1.66931e-12
-6.69221e-13
-3.32655e-13
1.99375e-12
-3.35816e-13
-4.54078e-12
-4.45224e-14
1.76646e-13
-1.43843e-14
1.96664e-13
2.17457e-12
2.35238e-13
9.43639e-13
-4.73679e-14
-2.3103e-15
-5.03954e-13
5.61772e-14
2.54634e-14
-2.04287e-12
-1.01444e-12
-1.65577e-13
5.82591e-13
6.27071e-13
2.07295e-12
-1.42534e-13
1.88753e-12
-2.67909e-12
-2.46232e-12
-1.7147e-12
2.44375e-13
-4.26191e-12
-3.18823e-13
-9.35203e-13
3.44976e-13
4.30849e-13
-4.55448e-14
-9.27384e-14
2.1439e-14
2.04982e-12
3.67536e-13
-2.53172e-12
1.11952e-15
-3.42932e-13
-1.86462e-12
-9.94575e-14
1.7201e-13
1.45946e-13
2.12659e-12
1.67641e-12
-1.17005e-13
-7.17776e-13
-2.14964e-12
-3.95753e-13
-6.60974e-13
-1.05618e-13
2.13981e-13
-4.12771e-13
1.09383e-13
-1.08078e-13
-1.83148e-13
2.2797e-12
3.67152e-13
-5.24107e-14
-1.85091e-13
5.03814e-14
-2.51217e-12
2.39043e-12
0
-3.37374e-14
1.14098e-13
2.69582e-12
2.12724e-12
1.86409e-13
1.34444e-14
6.46786e-14
7.87202e-14
5.91572e-13
-1.87795e-13
-1.9236e-12
-1.4794e-13
1.47902e-13
1.47874e-13
1.4786e-13
-4.43571e-13
2.95733e-13
2.36625e-12
0
-2.95913e-13
-5.91721e-13
1.62708e-12
0
-1.77469e-12
0
0
1.47884e-13
-1.47893e-13
-1.47911e-13
0
-5.91666e-13
3.25391e-12
1.47891e-13
1.47885e-13
2.21826e-12
5.91526e-13
2.36605e-12
-1.3309e-12
1.47892e-13
2.07066e-12
0
7.3945e-13
-2.07037e-12
1.62678e-12
1.47898e-13
7.39469e-13
1.47879e-13
-2.07018e-12
1.62662e-12
2.95771e-13
0
-1.77459e-12
0
0
-2.81061e-12
-4.43762e-13
-2.36629e-12
7.39339e-13
1.47861e-13
-2.36588e-12
0
-2.95763e-13
2.07054e-12
-1.62719e-12
-1.47952e-13
-4.43834e-13
1.33116e-12
4.28825e-12
-1.6264e-12
0
2.95759e-13
-7.39385e-13
-2.51416e-12
-1.62712e-12
-1.92327e-12
1.47937e-13
2.3664e-12
0
-1.47849e-13
1.47854e-13
1.47881e-13
-1.77447e-12
-1.92238e-12
0
0
-1.47898e-13
-8.87228e-13
-2.66128e-12
0
0
0
-1.03514e-12
2.95732e-12
1.6265e-12
3.25306e-12
-1.47861e-13
0
0
3.10489e-12
1.9223e-12
-4.43717e-13
2.21833e-12
1.77446e-12
1.33073e-12
-1.47851e-13
1.47845e-13
-4.43528e-13