/*--------------------------------*- C++ -*----------------------------------*\
  =========                 |
  \\      /  F ield         | OpenFOAM: The Open Source CFD Toolbox
   \\    /   O peration     | Website:  https://openfoam.org
    \\  /    A nd           | Version:  10
     \\/     M anipulation  |
\*---------------------------------------------------------------------------*/
FoamFile
{
    format      ascii;
    class       volScalarField;
    location    "0.1";
    object      gradTx;
}
// * * * * * * * * * * * * * * * * * * * * * * * * * * * * * * * * * * * * * //

dimensions      [0 -1 0 1 0 0 0];

internalField   nonuniform List<scalar> 
46825
(
1.49086e-13
-1.32471e-13
-2.1713e-12
-4.48763e-14
3.78015e-12
-5.68802e-13
-3.1167e-12
5.82515e-13
1.15797e-12
-4.47299e-13
2.98106e-13
1.32386e-13
1.73829e-13
1.0032e-12
1.01506e-13
-1.1225e-12
-2.30106e-12
1.4046e-13
3.25777e-12
2.98125e-13
-1.93576e-12
3.71423e-13
1.98232e-12
-2.27319e-12
-1.98313e-12
-9.99948e-14
-4.92741e-13
5.56249e-13
7.20227e-13
-1.48912e-13
-1.48691e-13
1.4107e-13
-2.2304e-12
-3.26178e-13
2.05636e-12
2.19315e-13
2.57229e-12
-2.798e-13
-2.2126e-12
2.97386e-13
1.63406e-12
2.20312e-12
3.19889e-13
-3.76315e-13
2.02376e-13
-1.07713e-13
2.33579e-12
-1.42045e-13
-1.82706e-12
4.45643e-13
-1.33711e-12
-2.30734e-13
1.72771e-13
-1.63476e-12
2.08628e-12
-3.1329e-14
-2.20153e-12
-1.25597e-13
-1.53433e-13
2.97125e-13
1.04116e-12
8.28893e-13
2.55972e-13
-2.11697e-12
-8.15297e-13
5.91091e-13
-9.75735e-13
4.86192e-14
3.76544e-13
2.97462e-13
-4.46889e-13
-1.42844e-13
1.52336e-12
-1.13261e-13
-1.62698e-12
2.53793e-13
-1.88367e-12
-8.73425e-15
2.12984e-12
0
1.491e-13
-1.7215e-12
-8.39046e-14
1.50309e-12
2.18935e-13
-2.62636e-13
6.50762e-13
3.35917e-13
-5.81075e-13
-1.49101e-13
1.49119e-13
-1.23762e-15
-9.05901e-13
-6.98666e-14
5.94183e-13
-1.82756e-13
-4.87199e-13
-3.49144e-14
5.29112e-13
0
-2.98394e-13
-8.98411e-14
1.60985e-13
4.07921e-13
5.82765e-15
-1.67543e-14
1.7834e-12
-3.28849e-13
-9.77249e-15
1.79059e-12
1.49316e-13
-5.95427e-14
-2.39921e-12
1.87006e-12
2.22726e-12
-1.98427e-12
4.87635e-14
4.3484e-13
7.39383e-14
1.49332e-13
0
3.7406e-13
4.09943e-12
-4.22377e-12
8.90881e-13
1.05106e-13
-4.99388e-13
-5.77442e-12
1.00998e-12
-1.49297e-13
-2.98387e-13
-8.97173e-13
1.14907e-12
4.1538e-12
-1.51897e-12
-2.90935e-12
4.55001e-15
1.02193e-12
-2.24291e-13
1.49197e-13
4.47474e-13
9.34758e-13
-4.25641e-12
4.02321e-12
6.37836e-13
-4.30518e-12
4.80278e-12
-3.94012e-12
9.34748e-13
-1.04409e-12
-1.49173e-13
-4.8613e-13
8.50094e-13
3.53897e-13
-6.32495e-13
2.12766e-13
-7.20012e-14
3.75483e-13
4.11329e-13
2.98332e-13
1.79083e-12
-4.1136e-13
-1.96579e-12
4.46094e-13
5.04679e-12
-4.7679e-12
-1.5364e-13
2.26226e-12
-7.47898e-13
0
0
5.98759e-13
-7.52367e-13
-1.91637e-12
2.05534e-12
-2.66742e-13
2.34033e-13
-4.62422e-15
-8.23279e-13
3.28543e-12
1.64296e-12
2.07998e-12
-3.58981e-14
-1.39484e-12
1.9342e-12
1.08164e-12
-4.02717e-12
-5.89856e-14
2.45488e-12
4.48082e-13
2.98441e-13
-5.36732e-14
-4.59298e-13
-3.27603e-13
-7.08003e-14
7.81442e-13
2.03454e-13
-2.15123e-13
-2.09536e-12
-1.93998e-12
-2.38661e-12
-3.55764e-13
4.76363e-13
-2.31245e-12
-7.27634e-13
2.56989e-12
3.77632e-14
-2.81013e-12
-8.88615e-14
1.49191e-13
3.43198e-12
3.68002e-12
-2.22343e-13
1.62387e-13
1.03626e-13
-3.39462e-13
-2.84765e-13
3.56008e-12
-3.25003e-12
-1.49247e-13
-2.38518e-12
-2.174e-12
7.15997e-13
-1.24397e-12
3.68629e-13
1.24473e-13
-8.60782e-13
-2.87893e-12
3.11813e-12
2.98189e-13
-4.61775e-12
-3.21897e-12
-1.18244e-13
-6.32597e-09
-6.8598e-10
1.54006e-10
2.05601e-09
4.48289e-11
6.52475e-12
5.36294e-12
1.49007e-13
6.79299e-12
-1.06673e-11
-9.33083e-09
1.36676e-10
-3.52295e-11
-2.57308e-10
-5.04206e-11
-1.84058e-13
-4.32125e-12
1.49014e-12
-5.27107e-15
3.02932e-12
-9.60361e-09
1.47941e-10
-3.37183e-11
-2.79362e-10
-4.94086e-11
-4.5323e-14
-2.98014e-13
-2.38372e-12
1.28446e-12
-1.16204e-12
-8.31884e-09
8.38871e-11
-2.16388e-11
-8.48201e-11
-1.50513e-11
-2.47074e-13
-1.19177e-12
7.45568e-13
-4.31759e-12
8.73987e-12
9.88767e-12
5.95877e-12
-1.75941e-12
-8.5509e-12
-3.35413e-12
-3.42945e-13
2.53481e-12
2.98511e-13
2.78577e-13
-5.57419e-12
6.41557e-12
-1.12727e-12
1.83201e-13
6.23886e-13
-4.92657e-12
3.75395e-12
0
1.49171e-13
-1.11395e-13
4.61549e-14
-1.91808e-13
2.32746e-12
-1.48937e-13
-1.78962e-12
-7.54118e-14
-6.53022e-14
1.49187e-13
-2.52974e-12
4.44122e-13
2.1552e-12
-3.53403e-13
1.47853e-12
1.80722e-12
-1.59269e-12
-4.87015e-13
-1.07571e-13
-1.04198e-12
4.90218e-12
4.83983e-12
8.87972e-13
-2.55767e-12
-1.75427e-14
-1.01824e-13
5.8989e-12
-3.77728e-12
-4.05823e-13
-4.45838e-13
-2.95173e-13
1.48897e-12
-3.4476e-11
-3.75276e-09
-8.20818e-11
7.9516e-11
3.41895e-10
8.82372e-09
5.25046e-09
-2.65753e-12
-3.52011e-12
3.67958e-10
8.54189e-07
-0.169319
-0.000863786
5.41517e-05
0.00232631
0.123468
1.36779e-08
-5.8681e-13
-1.46476e-12
3.68735e-10
8.78367e-07
-0.254974
-0.00295847
0.000175699
0.00837202
0.164313
6.68302e-09
-1.61137e-12
2.19719e-12
3.68209e-10
8.83687e-07
-0.25617
-0.00309054
0.000185542
0.00860579
0.164901
6.22153e-09
1.75772e-12
2.20023e-12
3.71111e-10
8.66166e-07
-0.25204
-0.00305491
0.00017501
0.00852529
0.162471
7.96269e-09
-5.86674e-13
5.90464e-13
2.17342e-10
9.18637e-07
7.70934e-05
0.000233213
3.59793e-05
-0.000100956
-0.00111721
-1.59314e-08
-8.8571e-13
1.48588e-13
-1.20539e-13
2.29488e-10
2.28811e-10
-2.80122e-12
1.49943e-12
-5.33463e-12
-1.08372e-10
-9.21323e-13
5.94436e-13
-1.63689e-12
-6.10103e-14
2.26504e-12
-1.99221e-13
-9.94083e-14
2.44448e-13
1.64658e-12
-1.74287e-13
-1.01099e-12
5.95335e-13
0
2.05642e-12
2.49306e-12
5.26201e-13
-2.40777e-12
-4.1017e-13
-2.2001e-13
-1.40641e-13
1.02522e-13
-1.93272e-12
2.96633e-13
1.52941e-12
3.83086e-12
2.71115e-11
7.29843e-12
6.93009e-14
-1.74272e-11
-3.49568e-12
-1.01257e-11
7.41962e-13
-1.32206e-12
4.99435e-13
-9.25243e-08
-0.000357618
0.000130483
2.17112e-05
-0.000131198
0.000140477
3.13681e-08
-2.49818e-12
-7.25738e-13
8.18978e-10
-0.118377
-2.33972e-06
-2.61331e-12
-1.01192e-12
-2.56263e-09
-0.144571
1.26938e-05
-1.01202e-12
1.15654e-12
-2.28976e-09
-0.144862
1.26058e-05
3.18033e-12
-2.90352e-13
-3.11853e-09
-0.144206
1.26647e-05
2.90273e-13
1.46943e-13
-3.59079e-11
0.0063545
-1.3945e-06
-1.91004e-12
2.67065e-12
9.79e-13
2.91275e-10
-1.4103e-07
1.36356e-08
-2.411e-09
-5.79865e-08
5.02417e-08
1.2454e-12
-2.07753e-12
1.4862e-12
-6.55456e-13
-5.22192e-13
3.47064e-12
-1.23727e-13
-1.0213e-12
1.45807e-12
-6.72865e-13
-9.50011e-14
1.63515e-12
-1.78398e-12
1.96312e-12
1.9594e-12
-2.34102e-12
1.63033e-13
-1.1558e-13
-4.5892e-14
3.30874e-13
-6.00754e-14
-1.4871e-13
-2.22728e-12
-3.31034e-12
4.45519e-12
-2.88504e-11
1.15138e-11
4.80982e-12
-3.20393e-11
-9.38223e-12
-4.91317e-14
4.45611e-13
4.41133e-13
-7.43139e-12
-9.62178e-08
0.00422684
0.00011286
2.272e-05
-0.000201481
0.00016624
3.24854e-08
2.94081e-13
7.25281e-13
1.32772e-09
-0.121529
-2.46432e-06
-2.61081e-12
1.44322e-13
-2.94423e-09
-0.150861
2.08625e-05
3.60809e-12
2.02066e-12
-2.54384e-09
-0.151279
2.09577e-05
4.18532e-12
2.32151e-12
-3.43757e-09
-0.15036
2.02446e-05
-1.30532e-12
1.02972e-12
-3.06276e-11
0.00659724
-1.46588e-06
-1.17638e-12
4.30783e-12
3.17214e-13
3.10561e-10
-1.80491e-07
2.68986e-08
-4.83741e-09
-1.0979e-07
5.64043e-08
3.27429e-12
5.94221e-13
1.4867e-12
-2.26405e-12
-1.70501e-12
2.62883e-12
5.02536e-13
-2.95658e-13
-2.87479e-12
-1.74754e-12
4.45023e-12
3.56873e-12
0
4.23845e-12
1.86196e-12
-2.73349e-12
-4.17448e-14
-2.56844e-12
6.23609e-15
7.94553e-13
3.9444e-14
1.78556e-12
-2.37781e-12
-3.62499e-12
5.95069e-13
-3.00894e-11
9.3628e-12
4.85795e-12
-3.16376e-11
-9.11141e-12
7.69191e-14
0
4.41508e-13
-4.11716e-12
-9.68417e-08
0.00425276
0.000113077
1.51853e-05
-0.000201831
0.000167696
3.27314e-08
-7.35766e-13
-1.88689e-12
1.60571e-09
-0.121689
-2.38335e-06
2.9023e-13
0
-2.48688e-09
-0.151173
2.09634e-05
4.33155e-13
-1.44404e-12
-2.19829e-09
-0.151573
2.10479e-05
1.58835e-12
1.16151e-12
-3.14283e-09
-0.150642
2.03083e-05
0
5.88916e-13
-2.93785e-11
0.00660806
-1.46969e-06
1.17761e-12
1.4868e-13
4.37732e-14
3.02804e-10
-1.78869e-07
2.83439e-08
-4.80274e-09
-1.11112e-07
5.6597e-08
1.8665e-12
-5.94794e-13
0
2.56285e-12
1.79329e-13
-4.89903e-12
-6.04061e-13
3.1446e-12
2.12044e-12
-3.782e-13
-1.54458e-12
0
2.38118e-12
-3.48675e-13
-2.71252e-12
4.26949e-13
5.20052e-14
-9.10871e-13
-2.1409e-12
2.70398e-12
2.49431e-12
-2.38186e-12
-1.48695e-13
-6.28975e-13
6.88208e-13
-3.2228e-11
1.31641e-11
-4.70581e-12
-2.42984e-11
-1.00002e-11
1.88097e-13
1.48743e-13
3.97592e-12
1.56472e-12
-9.63207e-08
0.00425594
0.000113087
7.60833e-06
-0.000209384
0.000167764
3.25986e-08
7.36159e-13
-8.71443e-13
1.59364e-09
-0.121697
-2.36746e-06
7.26011e-13
2.45632e-12
-2.48661e-09
-0.151181
2.09719e-05
2.88972e-13
1.44502e-13
-2.17841e-09
-0.151603
2.10518e-05
0
-2.90565e-13
-3.12733e-09
-0.150649
1.90631e-05
-1.45293e-13
0
-3.50861e-11
0.00660698
-7.40787e-07
1.03131e-12
5.95068e-13
-1.76716e-12
3.02085e-10
-1.79555e-07
2.84952e-08
-4.69537e-09
-1.11549e-07
5.65873e-08
6.17285e-12
7.4396e-13
-1.78603e-12
-1.71992e-12
1.87599e-12
-1.20469e-12
4.11977e-14
2.70749e-12
-4.8551e-13
5.11284e-13
3.79799e-13
-1.48862e-13
-1.93545e-12
-2.57563e-12
1.64581e-12
2.10927e-12
-1.95088e-12
2.17641e-13
3.63769e-13
-2.27684e-12
-1.10445e-12
-1.48922e-13
-1.48752e-13
6.46746e-14
-7.62726e-14
-2.43212e-11
2.72126e-12
7.44325e-12
-2.50029e-11
-1.76475e-11
3.73859e-12
-1.63678e-12
2.06277e-12
4.32149e-12
-9.63588e-08
0.00425118
0.000113014
1.51778e-05
-0.00020926
0.000167798
3.26883e-08
-1.47323e-13
-2.47185e-12
1.38844e-09
-0.121652
-2.28581e-06
1.45374e-13
5.78835e-13
-2.70514e-09
-0.151083
2.09178e-05
0
-3.61807e-12
-2.40203e-09
-0.151481
2.09944e-05
-2.17087e-12
0
-3.37812e-09
-0.150549
2.00513e-05
-3.92704e-12
0
-3.37586e-11
0.00660321
-3.42858e-06
1.03186e-12
-1.48825e-13
-2.04964e-12
3.03515e-10
-1.76823e-07
2.79893e-08
-3.98687e-09
-1.0909e-07
5.61645e-08
2.74005e-12
1.19075e-12
0
1.6655e-12
-2.03424e-13
-1.99418e-12
4.15158e-13
3.75876e-14
1.10733e-14
2.00295e-12
3.66932e-14
-1.78698e-12
-2.97844e-13
-2.18784e-13
5.6358e-13
1.81781e-12
-4.90511e-14
-1.7453e-12
-1.42591e-13
6.30845e-14
-1.16876e-13
-1.4896e-13
2.97597e-13
-1.02543e-12
-4.32837e-12
-4.17564e-11
-8.75717e-12
5.89551e-12
6.84449e-12
-1.24414e-11
7.3748e-12
-1.78609e-12
1.91693e-12
7.45018e-14
-9.53651e-08
0.00362964
8.82392e-05
7.37526e-06
-0.000153674
0.000154221
3.22117e-08
-2.21169e-12
-1.02005e-12
2.77591e-09
-0.119722
-5.19749e-06
2.91398e-13
-1.88692e-12
2.51557e-09
-0.146785
-3.69893e-06
-7.25706e-13
-2.90321e-13
2.78744e-09
-0.147102
-3.84512e-06
5.80608e-13
3.06095e-12
1.72731e-09
-0.146392
-2.59154e-06
-1.45729e-13
-1.47514e-13
-3.90732e-11
0.00644252
-1.33956e-06
5.89968e-13
1.48861e-13
3.82284e-12
2.63728e-10
-1.17157e-07
-1.2253e-09
2.5553e-10
3.09988e-09
4.50475e-08
-6.72972e-13
0
0
-5.90019e-14
-2.3395e-12
-6.21489e-13
3.45662e-12
8.69391e-13
-3.74775e-12
-3.60558e-13
3.12462e-12
0
-4.31934e-12
-2.39892e-12
2.63797e-12
5.51083e-13
2.97699e-14
2.47086e-12
6.17646e-14
-2.93665e-12
-8.89722e-14
0
-4.16707e-12
-2.7661e-12
-1.48846e-12
1.31854e-12
1.4289e-13
-9.18109e-14
3.47667e-13
-5.88845e-13
-1.6204e-12
-2.97686e-13
-8.8469e-13
3.94747e-13
-4.54109e-10
6.71622e-09
1.6581e-10
1.13471e-11
-3.06072e-10
-5.65246e-08
7.76199e-11
-7.37258e-13
-1.45709e-12
7.25974e-13
-7.70254e-07
-2.27835e-09
3.05981e-12
-1.45149e-13
9.27435e-14
-7.87894e-07
-2.39117e-09
1.45143e-13
2.17737e-12
-7.54357e-13
-7.86784e-07
-2.4039e-09
7.25748e-13
2.33182e-12
1.23324e-12
-7.86127e-07
-2.36469e-09
4.37163e-13
-5.89996e-13
-3.622e-12
-6.11303e-07
5.14946e-09
-7.37414e-13
2.97753e-13
-3.65051e-12
3.61863e-12
-2.01209e-11
-2.97312e-12
1.15922e-12
5.46906e-12
-2.32309e-10
2.87588e-13
2.9776e-13
0
-3.39952e-13
2.90872e-14
3.56582e-13
-1.49888e-12
-1.87945e-13
1.10957e-12
1.79135e-13
1.31407e-12
2.97928e-13
0
1.59905e-14
-2.64827e-14
3.06437e-12
2.05999e-12
-2.93117e-12
1.70981e-13
-2.02555e-12
-3.02826e-12
8.93742e-13
8.9291e-13
-1.10783e-13
1.19138e-12
9.78875e-13
-1.29887e-12
-5.50602e-13
4.0091e-12
5.88407e-13
-4.3221e-12
7.44105e-13
-7.36721e-13
-2.66232e-12
7.46332e-12
6.0396e-12
-1.37365e-12
-7.72471e-12
-1.50671e-12
-4.4663e-12
1.52082e-12
-8.84133e-13
-7.26969e-13
1.53429e-12
-8.16271e-13
5.07698e-13
-2.90809e-12
-4.34161e-12
-2.82653e-12
6.44865e-12
3.58365e-12
-1.44717e-12
2.89456e-13
-3.71496e-13
-4.30712e-12
-7.32737e-14
-1.44721e-13
1.45416e-13
-8.87118e-14
6.48668e-12
2.91421e-13
-3.05349e-12
-5.30603e-12
-1.22066e-12
-3.45129e-12
4.24422e-12
-2.21056e-12
-1.1909e-12
1.15752e-12
-3.0134e-13
-1.93902e-12
4.21465e-12
-1.98954e-12
-4.08669e-13
1.80539e-13
-1.76536e-14
-1.19084e-12
4.46836e-13
6.08928e-14
-7.55805e-13
1.05364e-13
-1.99268e-14
-6.90645e-13
-6.24729e-14
-2.04216e-12
3.38265e-13
2.38327e-12
-4.02123e-12
-2.40265e-13
3.80554e-12
-1.45896e-12
2.12698e-12
1.34973e-12
-1.45675e-12
-2.74817e-13
2.02365e-13
-1.48942e-13
0
2.22862e-13
-3.87262e-12
3.81868e-12
2.29925e-13
-1.84179e-13
-5.14308e-12
8.82697e-12
-4.27492e-12
1.19039e-12
2.94572e-13
-9.57588e-13
8.99221e-12
-5.81071e-13
-5.89792e-13
2.97103e-13
-1.93891e-12
-9.09173e-13
1.20929e-12
-1.03107e-12
-1.45253e-13
4.31888e-13
1.49369e-12
-5.68266e-13
0
0
1.26753e-12
2.56646e-12
1.46454e-13
-2.89052e-13
-5.78146e-13
2.08139e-13
-2.50252e-12
2.05463e-12
-1.15624e-12
-1.45273e-13
-1.22234e-13
9.4415e-13
5.83439e-13
2.75998e-12
-2.94653e-13
2.24842e-13
4.03297e-12
2.48829e-12
-3.53539e-12
-2.38145e-12
-3.88268e-12
-2.92868e-13
-2.17375e-12
-1.9837e-13
2.54104e-13
-7.80029e-13
5.81008e-13
-2.83161e-13
-1.04183e-12
-1.7872e-12
-3.90524e-12
-1.51044e-13
3.99497e-12
1.78482e-12
-1.9158e-12
-5.30511e-13
1.19099e-13
-1.18621e-12
-1.4894e-13
7.44638e-13
6.40093e-13
-4.60327e-15
-1.66191e-12
1.75127e-13
1.99654e-12
1.61643e-12
2.35701e-12
-2.11372e-12
-2.38291e-12
0
-1.00667e-12
5.95795e-13
3.72681e-12
-3.02046e-12
-4.39762e-12
3.9463e-12
2.05952e-12
-1.97367e-12
3.12471e-12
5.89093e-13
4.36354e-14
-1.48777e-12
4.06824e-12
1.76977e-11
-5.83674e-12
3.80152e-13
-1.86339e-12
-1.21499e-13
-4.41819e-13
1.45225e-13
-5.04636e-13
1.18895e-11
2.03494e-12
2.75927e-12
2.60088e-12
2.03695e-12
-9.79776e-13
3.95655e-12
-2.02286e-12
1.44498e-13
-1.26774e-12
6.94409e-12
-1.61516e-12
8.66963e-13
-5.80963e-13
5.16097e-12
1.88638e-12
1.09443e-12
1.7428e-12
1.76765e-12
-6.74067e-13
4.32159e-13
-8.56865e-13
2.94587e-13
-2.38127e-12
-3.11835e-12
-9.05888e-13
1.32627e-12
-7.05759e-13
5.19436e-13
-3.23882e-12
3.51427e-12
-5.84488e-13
0
0
1.87303e-13
1.27717e-13
-4.57524e-13
-7.1751e-13
-2.1394e-12
2.80749e-12
4.05249e-12
-1.8499e-12
-1.34037e-12
1.3404e-12
1.5873e-12
7.38609e-13
2.37793e-12
-1.35951e-13
-6.96697e-13
1.53231e-13
-1.62225e-12
2.22892e-12
2.08513e-12
-4.46393e-13
8.59858e-13
2.97885e-13
5.33502e-12
-5.69434e-12
3.78577e-12
-4.05316e-12
2.94186e-13
3.74096e-12
-8.92798e-13
3.97674e-12
3.75811e-12
7.79648e-12
0
0
-7.38235e-13
1.88335e-11
-9.21834e-12
2.84264e-12
-1.03099e-12
-3.19588e-12
-1.11449e-12
-1.59587e-12
-2.25292e-12
8.71591e-13
-1.15641e-12
4.11058e-12
-8.05577e-12
-2.19762e-12
2.891e-13
-4.3367e-12
-1.92343e-12
1.04887e-11
-1.32115e-12
1.44554e-13
-4.35846e-13
-2.80735e-13
-4.91123e-13
-3.86596e-12
7.26389e-13
2.20975e-12
-4.39339e-12
7.92242e-12
-4.39156e-12
4.12463e-12
3.86959e-12
2.31821e-12
5.43498e-12
-5.18687e-12
5.08523e-12
-1.13245e-11
4.84566e-12
8.32706e-13
3.46639e-13
-1.33944e-12
0
5.25304e-13
-2.32352e-12
-8.82367e-14
5.06837e-12
-2.04681e-14
-2.35718e-12
-1.80661e-13
-1.4697e-13
0
4.46821e-13
3.31555e-13
6.40781e-13
-3.26744e-14
-3.82424e-13
-1.54382e-12
1.47457e-13
1.71361e-12
1.61317e-12
1.7874e-12
-2.08325e-12
3.49097e-13
-4.46655e-12
1.14541e-12
2.2216e-12
-3.35244e-12
5.16394e-13
0
1.91275e-13
-8.92889e-13
2.21018e-12
2.34122e-12
1.4735e-13
0
-2.3576e-12
-1.54926e-12
5.74632e-13
4.6793e-12
1.43804e-12
0
-4.36341e-13
4.05277e-13
4.53764e-15
-7.26042e-14
1.59994e-12
1.44808e-13
2.64431e-13
4.502e-12
1.53632e-12
-1.44808e-13
-7.24068e-13
1.08148e-12
3.98431e-12
-1.53912e-12
0
-3.49119e-12
-3.08226e-12
3.83706e-12
-8.01472e-13
0
-5.89526e-13
4.23056e-13
3.31124e-12
-5.99743e-12
1.47375e-12
-1.93499e-12
-2.29628e-12
-6.03474e-13
-5.28812e-12
5.15395e-12
1.47583e-13
-2.08339e-13
1.48556e-13
3.42608e-13
-4.46525e-13
3.1279e-12
2.48646e-13
-3.29303e-12
-3.23262e-12
-3.62011e-13
2.6776e-12
5.71851e-13
2.40657e-12
-1.11447e-13
-2.53212e-12
-1.48961e-13
2.3103e-13
-2.3785e-12
-2.77498e-13
2.44808e-12
-1.77003e-13
3.98614e-15
5.87723e-14
-1.40384e-13
-2.9797e-13
4.46487e-13
5.01362e-14
5.65533e-12
-1.01705e-11
4.36719e-12
-4.8193e-12
5.33973e-12
1.16363e-12
-2.4903e-12
-7.44293e-13
0
-1.25095e-12
2.2301e-12
-7.14433e-14
1.58627e-11
-1.57104e-12
-1.76474e-14
5.73096e-13
-1.82276e-12
-1.47476e-13
-5.83035e-13
-4.63899e-13
-1.3238e-12
4.59514e-12
-5.83046e-13
1.45216e-13
1.84554e-13
2.55711e-12
-9.58187e-13
-2.90434e-13
-4.35667e-13
-9.98688e-13
-5.13288e-12
5.90622e-13
7.26108e-13
7.28876e-13
-3.27287e-12
5.9173e-12
-1.17458e-12
1.45771e-13
-8.85069e-13
1.19403e-12
2.14965e-12
2.19118e-13
-1.3275e-12
5.9559e-13
-3.38149e-12
2.9861e-12
-9.45599e-13
3.95507e-13
-4.51572e-13
-6.62894e-12
6.78468e-12
2.4845e-13
-2.38228e-12
0
-2.17398e-13
1.95021e-13
-1.01356e-13
1.72653e-14
3.00038e-12
2.11543e-12
-2.92931e-12
-3.03791e-12
-4.46956e-13
5.95862e-13
8.71046e-13
-6.16981e-13
-1.44433e-13
4.60438e-13
2.01162e-14
-1.15226e-13
6.79913e-14
-1.78565e-13
-2.98006e-13
-2.23247e-12
-2.05301e-12
0
-4.35979e-13
-1.15152e-13
5.51578e-13
4.02734e-13
2.94504e-13
-1.96018e-13
2.8288e-12
2.21186e-12
7.20602e-13
-8.93928e-13
-4.75091e-13
-1.3278e-12
-7.14259e-12
6.88789e-12
2.60073e-13
6.61201e-13
-1.03238e-12
1.45656e-13
-2.25174e-13
-3.63733e-12
-2.91691e-13
-3.05891e-12
-1.01531e-12
-4.02523e-12
1.63855e-12
6.04383e-12
0
0
-6.66585e-13
1.19327e-12
2.36264e-12
-5.80212e-13
-5.82646e-13
1.52518e-12
-4.61285e-12
-3.23059e-12
-2.1849e-12
1.62251e-12
-7.56745e-13
-8.60965e-13
1.61065e-12
5.89983e-13
1.04246e-12
2.39247e-13
-4.35062e-13
4.52461e-13
-2.14503e-13
-4.64115e-12
4.53848e-12
3.40279e-12
-3.02567e-12
2.97843e-13
-3.12901e-12
-6.58497e-13
3.34614e-12
1.54042e-13
-1.66852e-13
4.02823e-13
-1.39667e-13
-3.22057e-12
1.37169e-13
2.98001e-12
0
-9.8e-14
2.4338e-13
2.66193e-13
1.92884e-14
-8.20911e-14
-3.81641e-13
3.13798e-14
-4.86569e-14
1.48993e-13
7.43979e-13
2.00189e-15
3.27726e-12
-3.72814e-12
1.23883e-12
-2.07366e-12
7.95214e-13
5.88491e-13
-1.06768e-13
-3.12598e-12
1.03151e-12
-1.99074e-12
1.43159e-12
-5.79094e-13
6.2815e-13
1.01311e-13
6.67734e-13
-1.16948e-13
0
-1.91583e-12
1.45381e-13
-3.26727e-12
8.01359e-12
-6.08366e-13
-2.32607e-12
0
4.31706e-12
-4.88567e-12
1.02405e-12
8.68005e-13
1.44668e-12
1.00315e-13
-9.4093e-14
-2.56514e-12
-2.74874e-12
1.45374e-13
-6.93144e-13
3.97941e-12
3.13316e-12
-1.45378e-12
-1.47386e-13
-1.91634e-13
2.30259e-12
9.50886e-13
2.9478e-12
3.72232e-12
2.67834e-12
2.11311e-12
-2.2442e-12
1.33226e-12
-1.15018e-13
-1.08159e-13
2.53805e-13
-1.38222e-13
2.97801e-12
-2.97991e-13
-2.39719e-12
4.71146e-13
7.5094e-14
-4.20708e-12
-9.29553e-14
-3.06616e-14
-4.23065e-14
4.24705e-12
2.235e-12
0
2.2351e-12
1.40531e-13
-2.07336e-12
-3.33234e-14
-5.58672e-13
4.02993e-14
1.93411e-13
-1.04738e-13
2.98008e-13
2.23188e-12
-5.46251e-12
4.46945e-12
9.08151e-14
8.21644e-14
-3.29993e-13
-5.02059e-12
4.43947e-12
6.01831e-13
-7.4428e-13
-3.68317e-12
-1.48871e-12
9.78279e-13
-5.21721e-12
-8.032e-12
5.76146e-12
2.226e-12
-9.10147e-12
7.17975e-12
-1.76794e-12
-1.45302e-13
4.02386e-13
3.42645e-12
1.81652e-12
2.46986e-12
2.89105e-13
-1.40098e-12
1.02905e-12
-4.32163e-12
1.01189e-12
-7.2278e-13
4.71653e-12
-8.40163e-12
1.1009e-12
8.67356e-13
1.45294e-13
7.45263e-13
1.70097e-12
7.65895e-12
-3.92306e-12
-1.47352e-13
5.6632e-13
-2.16042e-12
1.82979e-12
-2.94725e-13
-4.46657e-13
-1.11018e-12
7.31357e-13
1.23663e-12
-5.24341e-13
4.80637e-12
-4.86783e-12
-8.05735e-12
8.31074e-12
-4.467e-13
-2.98011e-13
1.64459e-12
-2.46891e-12
-1.80836e-12
1.19303e-12
-9.24591e-14
-1.12476e-12
-2.35749e-12
2.93243e-12
2.53316e-12
-4.47031e-13
2.50165e-14
-1.72002e-12
1.52562e-12
2.6991e-13
-5.83964e-12
2.08465e-12
3.71163e-12
2.56473e-12
2.0868e-12
-4.46532e-13
8.69457e-13
-8.93902e-13
1.17526e-13
1.00063e-13
-4.63174e-13
-2.59699e-13
-1.15052e-12
1.90678e-12
2.3825e-12
-4.42139e-13
7.02798e-12
-9.99482e-12
-9.85519e-12
8.05546e-13
1.62471e-12
-8.82347e-12
1.45814e-12
-1.06168e-14
-2.21069e-12
-2.1806e-12
-1.67122e-12
9.70496e-12
0
-1.16282e-12
2.89271e-13
5.62561e-12
-1.47026e-13
3.15015e-12
-1.01245e-12
7.23197e-13
5.96078e-14
1.04342e-12
1.98184e-12
1.44643e-13
-2.90731e-13
-4.07759e-12
6.00792e-12
-1.02125e-12
0
0
-1.17383e-13
-1.44035e-13
7.75403e-13
-1.62159e-12
5.65947e-12
3.62059e-12
9.05971e-13
-3.29769e-12
3.39981e-12
1.14692e-15
4.52504e-13
-6.72598e-13
-3.68577e-12
1.04264e-12
0
3.92779e-13
1.78475e-13
2.29953e-14
-1.34039e-13
-4.49287e-13
4.16181e-13
7.55038e-13
-3.46942e-13
-5.96255e-13
4.47369e-13
-1.81076e-13
-2.75017e-12
-1.7009e-12
2.28368e-12
1.97955e-12
-1.65499e-12
-4.61257e-12
-4.18809e-13
1.78994e-12
8.93874e-13
-5.65341e-13
1.19163e-12
8.79554e-15
1.29485e-14
-2.72805e-13
9.7812e-14
2.41604e-13
-4.09895e-12
1.49031e-12
3.98489e-12
3.40415e-12
-4.32137e-14
1.15909e-12
-5.93188e-12
8.61741e-12
9.00931e-13
3.50995e-13
1.51501e-12
-5.90407e-13
-2.47725e-12
-6.1871e-13
-1.32439e-11
-2.61403e-12
-2.47699e-12
-2.32115e-12
-2.54388e-12
8.03056e-13
-4.39013e-12
1.4506e-13
-2.32119e-12
1.0017e-14
-4.54545e-13
-2.85893e-12
5.80267e-13
1.45719e-13
3.54861e-12
-6.47409e-12
-8.74424e-13
-4.37167e-13
1.62381e-12
3.8275e-12
8.49575e-12
-4.31525e-12
2.95273e-13
-7.45307e-13
-6.53962e-13
9.05518e-13
-4.16164e-12
3.78902e-12
-3.34952e-13
-3.41409e-12
8.33118e-12
-4.70479e-12
0
4.1765e-12
2.12443e-12
3.73331e-13
-8.11034e-14
-4.22209e-12
1.48141e-12
1.84832e-12
-3.33282e-12
-1.33117e-12
-1.49172e-13
-1.49254e-13
2.03576e-13
-1.54885e-13
-5.45596e-13
-1.41662e-13
-4.43121e-14
1.88713e-12
1.92665e-12
-2.52931e-12
-2.23917e-12
-1.34296e-12
-2.24496e-12
-3.87343e-12
3.77142e-12
8.89217e-14
2.16181e-13
5.54118e-14
9.71753e-13
-8.4055e-13
-2.08952e-12
4.59224e-12
-7.20272e-13
2.13447e-12
-5.78388e-13
6.44531e-13
7.66389e-12
-5.12406e-14
1.55325e-12
4.80707e-13
4.44542e-13
-1.4676e-13
-1.17912e-13
2.62572e-13
8.69807e-13
5.87123e-13
0
3.17162e-12
3.09899e-12
-3.06783e-12
-1.31727e-12
-1.46365e-13
2.39237e-13
-8.38908e-13
-1.46326e-13
-1.46374e-13
3.22906e-12
2.69611e-12
2.73676e-13
3.63939e-12
-1.02764e-12
2.96336e-12
3.23049e-12
-1.43637e-13
-5.25783e-12
1.63041e-12
2.38839e-12
2.76021e-12
4.82377e-12
-9.73282e-12
4.89306e-12
-3.33381e-13
3.98072e-13
-9.45031e-13
4.02134e-12
1.49312e-13
2.98556e-13
4.8677e-13
3.28764e-13
4.3131e-13
-5.80745e-13
-1.37716e-13
-2.04668e-12
-2.56689e-12
2.39812e-12
2.23954e-12
0
8.09078e-13
2.74578e-13
-1.06664e-12
-1.03418e-13
9.11408e-14
3.85271e-13
-9.60543e-14
-3.98657e-13
0
5.97038e-13
3.10405e-12
1.19551e-12
1.36272e-14
1.07771e-12
-1.59528e-12
5.94631e-13
3.89481e-13
-1.58304e-13
0
-1.33853e-12
5.08164e-12
6.89098e-12
-4.90066e-13
4.43079e-12
6.78723e-12
1.55789e-12
8.60945e-14
7.85557e-12
-4.46405e-13
1.03668e-12
-2.4447e-12
-5.74614e-12
3.93606e-12
-4.44625e-13
-1.18368e-12
-1.18915e-12
-1.39232e-11
1.88274e-12
-1.33277e-12
2.95935e-13
9.66884e-13
-1.64852e-12
1.85973e-12
-5.92395e-13
0
3.71087e-13
6.58101e-12
-1.09323e-12
5.93002e-13
3.42154e-12
2.3647e-12
1.45038e-12
3.71216e-13
0
1.49303e-13
-1.65611e-13
-3.92997e-12
1.61724e-12
3.2333e-12
-4.76852e-12
3.32245e-12
3.08636e-13
-1.79625e-14
2.24032e-12
-1.79067e-12
1.66838e-12
3.53714e-12
-3.05178e-13
1.08277e-14
-5.78635e-14
1.83543e-12
-2.5488e-13
-1.46774e-12
0
1.19102e-12
2.29077e-12
9.23733e-13
-3.71776e-13
-7.90298e-13
1.96607e-14
4.19806e-12
2.08813e-13
-3.7743e-12
1.48878e-13
0
1.25791e-12
-1.60789e-13
-2.3707e-12
1.18661e-12
5.69081e-13
-1.85024e-13
3.03382e-13
-5.61834e-13
5.95444e-13
-1.18838e-12
7.22604e-12
-7.10949e-12
1.19583e-12
3.15753e-13
-2.55482e-13
-1.84453e-12
3.43236e-12
-3.28829e-12
0
-3.5588e-12
-7.60317e-12
4.87409e-12
5.35913e-13
-9.18068e-13
7.21532e-13
3.15028e-12
2.35918e-12
1.66477e-12
2.52169e-12
-3.11314e-12
-2.44421e-12
-6.49917e-12
6.37075e-12
-4.7304e-12
2.80388e-13
-3.8454e-12
-1.96056e-12
-1.42502e-13
8.89796e-13
1.03777e-12
-6.88504e-13
3.83649e-13
-7.40489e-13
2.3532e-12
3.62495e-12
8.7615e-14
-7.31615e-12
4.22874e-12
-1.18652e-12
1.48309e-13
-3.69072e-12
5.5832e-12
3.32633e-12
7.04104e-13
2.73205e-13
-5.27111e-13
-2.13242e-12
-4.20068e-12
-1.03864e-12
-2.97167e-13
-5.5141e-12
6.42741e-12
-9.13085e-12
-5.11127e-13
-4.81934e-12
-1.09114e-12
8.75835e-12
3.12267e-12
-4.45935e-13
-3.87067e-12
-8.23109e-12
3.86281e-12
-8.92351e-14
-4.07946e-12
4.80647e-12
1.20305e-13
-2.43261e-13
-5.25712e-13
1.48915e-13
2.97743e-13
2.13686e-13
2.2636e-13
2.20908e-12
-3.57288e-13
-4.76278e-14
7.69259e-14
-2.03014e-12
-5.96924e-13
-7.44531e-13
7.4233e-13
7.43577e-13
-1.90983e-13
-1.63859e-13
-3.49761e-14
2.41568e-12
1.75172e-12
-1.61673e-13
-1.70678e-12
-2.07852e-12
2.07701e-12
-1.71973e-13
-3.94822e-12
-2.9439e-12
2.14312e-12
2.38802e-13
-2.5086e-14
5.14266e-12
-1.69053e-12
-3.85787e-12
1.4814e-13
1.80935e-12
8.8182e-13
-1.84616e-12
8.82026e-13
-5.88236e-13
2.93845e-13
4.99608e-12
-5.43929e-12
5.929e-13
-1.47983e-13
1.95454e-12
-1.14461e-12
-2.36596e-13
1.07179e-12
-8.87228e-13
0
3.22368e-12
-2.05756e-12
-5.9202e-13
1.7754e-12
-1.14361e-12
-1.1345e-12
-7.21379e-13
-8.83783e-13
2.53276e-12
-3.54385e-13
1.37538e-12
7.37848e-14
-7.39871e-13
1.92345e-12
-1.14367e-12
-9.83605e-13
-4.88124e-14
2.09508e-12
-3.2545e-12
1.33491e-12
-2.07425e-14
-2.8409e-12
-2.95963e-13
-1.48002e-13
-2.69247e-12
1.94687e-13
-3.82348e-12
2.59523e-13
2.27952e-12
1.26463e-12
-1.83518e-12
-6.63938e-13
2.66449e-12
1.62979e-12
0
-2.16549e-12
1.4896e-13
-1.21893e-12
3.90932e-13
2.57971e-13
-4.2425e-12
-1.40348e-12
-1.92646e-12
-1.48373e-13
-7.40485e-13
-3.57059e-12
1.47501e-12
-5.86431e-13
4.66983e-13
2.69463e-12
-4.14316e-13
-2.09302e-12
0
4.45377e-13
4.10125e-13
-3.4778e-13
1.90021e-12
6.53107e-14
-2.43752e-12
-2.83018e-13
3.46064e-13
6.53503e-14
0
4.44611e-13
1.6878e-13
5.7683e-13
4.07123e-13
1.36569e-12
-1.54384e-13
-3.29253e-12
2.85323e-13
1.30549e-12
-2.96402e-13
3.99921e-12
2.47403e-12
-2.17379e-12
-4.83648e-13
-2.5991e-13
-1.2586e-12
1.80509e-13
1.14638e-12
-3.42143e-14
1.48118e-13
2.36801e-12
-1.93364e-13
-6.4778e-13
1.94941e-12
2.68792e-13
-2.26798e-13
2.09046e-12
2.44924e-12
-8.22351e-13
-7.40064e-13
2.81048e-12
5.44152e-13
-2.69484e-12
-2.07546e-12
3.27492e-14
1.38533e-12
2.24397e-12
-2.09928e-14
-2.19907e-12
-1.4792e-13
0
2.68493e-12
1.91679e-13
-3.03047e-12
8.50351e-14
-3.05376e-13
2.18238e-12
-1.93494e-13
-4.13492e-12
-1.18312e-12
-2.36648e-12
-4.11677e-13
2.40944e-12
4.40245e-13
2.08464e-13
-5.8693e-13
-1.16568e-12
-1.04009e-13
8.36491e-13
0
-1.92306e-12
-2.49791e-12
1.27132e-12
-1.3803e-13
-1.82074e-12
6.42479e-13
-1.90864e-12
4.40999e-14
1.59571e-12
-2.95839e-13
-5.92027e-13
-5.15473e-13
1.5738e-12
-4.19842e-14
-3.54279e-12
-8.35317e-14
2.22907e-12
-4.86065e-15
-1.59949e-12
-1.62806e-12
0
-4.16378e-14
1.75843e-13
-9.49666e-14
-1.15894e-13
2.2166e-12
-1.91038e-13
-2.10989e-12
1.30846e-13
-1.4812e-13
-4.44589e-13
1.75737e-12
2.43264e-12
-3.14531e-14
-2.16714e-13
1.53438e-14
3.68191e-13
-9.63062e-14
4.62847e-14
1.482e-13
2.96112e-13
-4.77131e-14
-2.15612e-12
1.51176e-12
2.32276e-12
-1.45062e-12
-2.60838e-13
1.85608e-12
-2.36908e-14
-1.92467e-12
-1.48007e-13
-3.37297e-12
-2.73959e-12
6.00512e-13
-5.45583e-13
8.86844e-14
8.50774e-13
6.18234e-13
1.27199e-12
1.18403e-12
-5.91781e-13
-3.8143e-13
-1.90893e-14
7.07258e-15
-1.0709e-13
-1.62056e-13
-3.16789e-14
6.23835e-14
1.83574e-12
1.7753e-12
1.62695e-12
6.87218e-13
-1.69962e-12
-1.08248e-12
1.6217e-13
4.61484e-13
-4.13004e-13
1.56998e-13
-7.43766e-14
-1.47892e-13
2.95779e-13
8.33771e-14
-1.64585e-13
1.16444e-13
-1.51574e-12
-3.06809e-13
1.70297e-12
-1.804e-14
-1.65026e-12
-1.47871e-12
2.21833e-12
-1.09391e-12
-1.8235e-12
2.21949e-12
-1.94917e-12
-2.01183e-13
1.2874e-12
3.43467e-14
3.22339e-13
-1.47868e-13
-1.77483e-12
-2.54541e-12
-4.89746e-13
1.01257e-12
6.06522e-13
1.4386e-12
1.42946e-12
-3.82618e-12
-1.43104e-12
1.92249e-12
0
-6.11426e-13
1.16538e-14
7.43307e-13
4.43052e-14
-2.2761e-13
2.61846e-13
-3.12747e-14
-1.34476e-13
0
0
-5.41982e-14
-4.68045e-13
-1.95611e-12
7.05183e-13
2.16225e-12
-6.547e-14
-3.39858e-13
1.13803e-13
0
2.96091e-13
-3.24337e-12
-1.98991e-12
2.98991e-12
2.30758e-12
8.44093e-13
-2.25247e-12
-1.9e-12
-6.4293e-14
1.4804e-13
5.91907e-13
2.22756e-12
1.53238e-13
-1.78936e-12
-1.84182e-12
4.6716e-13
4.38726e-12
-6.82888e-13
-2.59087e-12
0
0
2.71149e-13
1.67085e-14
3.10403e-14
-2.3153e-13
-2.79468e-13
5.10439e-13
6.2704e-14
-5.1404e-13
0
-1.47919e-12
-1.90317e-12
-1.02205e-12
-4.26505e-13
5.14351e-13
4.96406e-13
-2.22222e-12
-2.5537e-13
2.25247e-12
0
1.47897e-13
2.3692e-12
1.19567e-13
-1.33987e-12
-1.64523e-13
-1.50245e-12
-1.67589e-13
4.46787e-13
-2.30485e-14
-1.47881e-13
-4.43663e-13
5.29256e-14
2.32221e-13
5.08608e-13
2.17923e-12
-5.26992e-13
-2.22247e-12
-2.70374e-12
-2.16696e-12
4.43599e-13
1.4789e-12
-3.34846e-13
-9.21714e-14
1.94717e-12
4.08264e-13
9.93738e-14
-5.87755e-13
1.08357e-13
-5.05134e-14
0
-1.92266e-12
-4.32165e-12
-2.59329e-13
2.44788e-12
4.04871e-13
-8.83538e-14
-2.79748e-13
-2.44676e-12
-8.86108e-15
2.36594e-12
-1.47913e-13
-2.62456e-12
-2.28733e-12
2.36929e-12
1.95182e-12
2.1828e-13
2.42957e-13
-6.3651e-13
2.57364e-13
5.91577e-13
-1.92327e-12
-1.85041e-12
1.1924e-13
-1.39011e-13
-1.14146e-13
-3.18064e-14
-2.46172e-12
3.28359e-13
2.18321e-12
0
1.47969e-13
-1.33588e-13
2.87526e-13
5.16652e-14
-6.69721e-13
-1.98209e-13
5.67355e-13
8.18525e-14
-2.8405e-13
-2.95913e-13
-2.21895e-12
-5.93028e-13
1.62202e-12
1.44466e-13
2.64437e-18
-2.40494e-13
3.55826e-13
1.54856e-13
-9.50576e-14
0
-2.95833e-13
4.34489e-14
-1.68325e-12
2.69544e-14
1.805e-12
-1.19647e-13
1.58109e-13
3.46454e-14
-3.26041e-14
1.47904e-13
1.62688e-12
2.1715e-13
-1.76649e-12
2.18001e-12
5.63905e-13
-9.12049e-14
-1.73551e-12
-2.0762e-12
3.32025e-12
2.0704e-12
0
-1.74797e-12
-2.298e-13
2.04259e-12
5.30003e-13
8.92895e-14
-2.77297e-12
1.61452e-12
2.09103e-12
-1.77441e-12
0
1.10518e-13
-7.05348e-14
-3.79372e-13
1.14442e-13