/*--------------------------------*- C++ -*----------------------------------*\
  =========                 |
  \\      /  F ield         | OpenFOAM: The Open Source CFD Toolbox
   \\    /   O peration     | Website:  https://openfoam.org
    \\  /    A nd           | Version:  10
     \\/     M anipulation  |
\*---------------------------------------------------------------------------*/
FoamFile
{
    format      ascii;
    class       volScalarField;
    location    "2.4";
    object      gradTx;
}
// * * * * * * * * * * * * * * * * * * * * * * * * * * * * * * * * * * * * * //

dimensions      [0 -1 0 1 0 0 0];

internalField   nonuniform List<scalar> 
3000
(
-495.246
-4.7314
-0.0227206
-7.29474e-05
-1.76199e-07
-3.57492e-10
1.34559e-10
-2.57572e-11
0
1.30118e-10
-495.246
-4.7314
-0.0227206
-7.29474e-05
-1.76203e-07
-3.6815e-10
2.70894e-11
-1.82077e-11
-3.55271e-12
2.4869e-11
-495.246
-4.7314
-0.0227206
-7.29474e-05
-1.76216e-07
-3.77032e-10
0
1.63869e-10
1.64313e-11
-1.15907e-10
-495.246
-4.7314
-0.0227206
-7.29473e-05
-1.76051e-07
-4.32543e-10
0
0
-1.39e-10
9.32587e-12
-495.246
-4.7314
-0.0227206
-7.29474e-05
-1.76206e-07
-3.49498e-10
1.65201e-10
1.39444e-10
-1.61204e-10
-1.33227e-10
-495.246
-4.7314
-0.0227206
-7.29474e-05
-1.76175e-07
-3.73923e-10
-2.66454e-11
1.63869e-10
4.30767e-11
-1.59872e-10
-495.246
-4.7314
-0.0227206
-7.29474e-05
-1.76035e-07
-2.43805e-10
2.22045e-12
0
-1.6076e-10
1.42109e-11
-495.246
-4.7314
-0.0227206
-7.29474e-05
-1.76212e-07
-4.01013e-10
1.34115e-10
2.04281e-11
-1.54543e-10
-6.66134e-12
-495.246
-4.7314
-0.0227206
-7.29474e-05
-1.76074e-07
-4.34763e-10
-1.31894e-10
1.28342e-10
-3.10862e-11
-1.30118e-10
-495.246
-4.7314
-0.0227206
-7.29474e-05
-1.76115e-07
-2.44693e-10
-6.21725e-12
-1.35891e-10
-1.01696e-10
1.37224e-10
-495.246
-4.7314
-0.0227206
-7.29474e-05
-1.76244e-07
-3.74367e-10
1.62093e-10
4.44089e-12
-1.39888e-10
3.10862e-12
-495.246
-4.7314
-0.0227206
-7.29474e-05
-1.76241e-07
-3.57048e-10
5.9952e-11
-2.22045e-11
1.5099e-11
-1.06581e-11
-495.246
-4.7314
-0.0227206
-7.29475e-05
-1.7619e-07
-3.69482e-10
8.43769e-12
9.63674e-11
6.66134e-12
-5.55112e-11
-495.246
-4.7314
-0.0227206
-7.29474e-05
-1.76176e-07
-4.0945e-10
-2.04281e-11
0
-3.24185e-11
-4.61853e-11
-495.246
-4.7314
-0.0227206
-7.29475e-05
-1.76259e-07
-3.23297e-10
9.14824e-11
0
-7.28306e-11
-6.21725e-12
-495.246
-4.7314
-0.0227206
-7.29475e-05
-1.76223e-07
-3.69926e-10
8.43769e-12
9.54792e-11
7.54952e-12
-2.39808e-11
-495.246
-4.7314
-0.0227206
-7.29474e-05
-1.7627e-07
-3.52163e-10
9.05942e-11
0
-7.19425e-11
-4.84057e-11
-495.246
-4.7314
-0.0227206
-7.29474e-05
-1.76192e-07
-4.24549e-10
1.28786e-11
4.44089e-13
-6.21725e-11
6.21725e-11
-495.246
-4.7314
-0.0227206
-7.29474e-05
-1.76174e-07
-3.75255e-10
-1.77636e-11
-6.03961e-11
-7.77156e-11
4.44089e-11
-495.246
-4.7314
-0.0227206
-7.29474e-05
-1.7615e-07
-3.81473e-10
1.17684e-10
0
-1.42997e-10
2.22045e-11
-495.246
-4.7314
-0.0227206
-7.29474e-05
-1.76219e-07
-3.77032e-10
0
1.63869e-10
1.64313e-11
-1.15907e-10
-495.246
-4.7314
-0.0227206
-7.29475e-05
-1.76223e-07
-3.03313e-10
2.22045e-11
2.93099e-11
-6.21725e-12
1.33227e-12
-495.246
-4.7314
-0.0227206
-7.29475e-05
-1.76136e-07
-4.22773e-10
-2.66454e-12
-1.82077e-11
-9.32587e-11
9.23706e-11
-495.246
-4.7314
-0.0227206
-7.29474e-05
-1.76259e-07
-3.57048e-10
7.81597e-11
-4.04121e-11
-3.77476e-11
7.99361e-12
-495.246
-4.7314
-0.0227206
-7.29475e-05
-1.76231e-07
-3.69926e-10
1.82077e-11
4.44089e-13
-1.86517e-11
8.43769e-11
-495.246
-4.7314
-0.0227206
-7.29474e-05
-1.7622e-07
-4.43645e-10
9.32587e-11
-1.82077e-11
-2.39808e-11
9.72555e-11
-495.246
-4.7314
-0.0227206
-7.29475e-05
-1.76232e-07
-3.60156e-10
3.9968e-11
4.44089e-13
-2.22045e-11
2.22045e-11
-495.246
-4.7314
-0.0227206
-7.29474e-05
-1.76186e-07
-4.33431e-10
-1.90958e-11
0
-7.81597e-11
5.9508e-11
-495.246
-4.7314
-0.0227206
-7.29475e-05
-1.7627e-07
-3.51275e-10
1.82077e-11
-1.82077e-11
5.06262e-11
3.95239e-11
-495.246
-4.7314
-0.0227206
-7.29474e-05
-1.76198e-07
-3.73479e-10
4.88498e-12
3.10862e-11
2.66454e-11
-2.70894e-11
-495.246
-4.7314
-0.0227206
-7.29474e-05
-1.7619e-07
-3.74811e-10
1.39e-10
0
-1.39e-10
9.32587e-12
-495.246
-4.7314
-0.0227206
-7.29475e-05
-1.76216e-07
-3.29514e-10
1.82077e-11
0
-3.24185e-11
5.77316e-12
-495.246
-4.7314
-0.0227206
-7.29475e-05
-1.76259e-07
-3.61045e-10
2.93099e-11
5.10703e-11
1.11022e-11
3.10862e-12
-495.246
-4.7314
-0.0227206
-7.29475e-05
-1.76232e-07
-3.48166e-10
2.66454e-11
0
-4.4853e-11
-6.21725e-12
-495.246
-4.7314
-0.0227206
-7.29474e-05
-1.7623e-07
-4.23661e-10
-6.12843e-11
5.28466e-11
8.52651e-11
-8.52651e-11
-495.246
-4.7314
-0.0227206
-7.29474e-05
-1.76174e-07
-3.606e-10
-1.82077e-11
-1.86517e-11
-7.72715e-11
-2.62013e-11
-495.246
-4.7314
-0.0227206
-7.29474e-05
-1.76175e-07
-4.22773e-10
-7.72715e-11
5.28466e-11
8.52651e-11
-8.52651e-11
-495.246
-4.7314
-0.0227206
-7.29475e-05
-1.76307e-07
-3.08642e-10
7.06102e-11
0
0
1.33227e-11
-495.246
-4.7314
-0.0227206
-7.29474e-05
-1.76237e-07
-4.05009e-10
2.17604e-11
-2.17604e-11
-7.23865e-11
3.55271e-11
-495.246
-4.7314
-0.0227206
-7.29475e-05
-1.76194e-07
-2.3137e-10
-1.73195e-11
-1.39e-10
2.22045e-11
-2.22045e-11
-495.246
-4.7314
-0.0227206
-7.29474e-05
-1.76251e-07
-3.46834e-10
1.65201e-10
1.34115e-10
-1.61204e-10
-1.4122e-10
-495.246
-4.7314
-0.0227206
-7.29475e-05
-1.76299e-07
-3.03313e-10
7.72715e-11
-1.95399e-11
-5.90639e-11
2.57572e-11
-495.246
-4.7314
-0.0227206
-7.29475e-05
-1.76148e-07
-3.51719e-10
-7.72715e-11
-1.82077e-11
-1.86517e-11
1.82077e-11
-495.246
-4.7314
-0.0227206
-7.29474e-05
-1.76259e-07
-3.04645e-10
2.9754e-11
-9.32587e-11
2.4869e-11
7.77156e-11
-495.246
-4.7314
-0.0227206
-7.29475e-05
-1.76292e-07
-3.69926e-10
6.88338e-11
4.44089e-13
-6.92779e-11
6.88338e-11
-495.246
-4.7314
-0.0227206
-7.29475e-05
-1.7627e-07
-3.51719e-10
8.52651e-11
-1.90958e-11
-1.55431e-11
3.9968e-11
-495.246
-4.7314
-0.0227206
-7.29475e-05
-1.76243e-07
-3.69926e-10
6.88338e-11
4.44089e-13
0
6.88338e-11
-495.246
-4.7314
-0.0227206
-7.29475e-05
-1.76188e-07
-3.00648e-10
-2.62013e-11
0
-1.42109e-11
-5.50671e-11
-495.246
-4.7314
-0.0227206
-7.29475e-05
-1.76259e-07
-3.51275e-10
8.88178e-11
-1.90958e-11
-1.90958e-11
9.54792e-11
-495.246
-4.7314
-0.0227206
-7.29474e-05
-1.76248e-07
-3.76588e-10
2.22045e-11
0
9.32587e-12
4.75175e-11
-495.246
-4.7314
-0.0227206
-7.29474e-05
-1.76216e-07
-2.13607e-10
-1.9984e-11
0
3.68594e-11
-1.59872e-10
-495.246
-4.7314
-0.0227206
-7.29475e-05
-1.7623e-07
-3.69926e-10
8.43769e-12
9.63674e-11
-3.77476e-11
-1.11022e-11
-495.246
-4.7314
-0.0227206
-7.29475e-05
-1.76221e-07
-3.69926e-10
7.28306e-11
0
-7.28306e-11
7.28306e-11
-495.246
-4.7314
-0.0227206
-7.29474e-05
-1.76174e-07
-2.94431e-10
-1.82077e-11
-8.43769e-11
6.66134e-12
7.28306e-11
-495.246
-4.7314
-0.0227206
-7.29475e-05
-1.7627e-07
-3.04201e-10
9.32587e-11
0
-9.32587e-11
2.75335e-11
-495.246
-4.7314
-0.0227206
-7.29475e-05
-1.76307e-07
-3.51275e-10
7.19425e-11
-1.86517e-11
-2.66454e-12
7.10543e-12
-495.246
-4.7314
-0.0227206
-7.29475e-05
-1.76162e-07
-3.79252e-10
-4.39648e-11
6.92779e-11
2.84217e-11
-2.93099e-11
-495.246
-4.7314
-0.0227206
-7.29475e-05
-1.7621e-07
-3.42837e-10
-5.86198e-11
8.88178e-13
2.53131e-11
-3.95239e-11
-495.246
-4.7314
-0.0227206
-7.29475e-05
-1.76152e-07
-3.29958e-10
-2.84217e-11
4.44089e-11
-2.22045e-11
-2.9754e-11
-495.246
-4.7314
-0.0227206
-7.29475e-05
-1.76175e-07
-2.0961e-10
2.17604e-11
4.44089e-13
1.33227e-12
-1.4122e-10
-495.246
-4.7314
-0.0227206
-7.29474e-05
-1.76201e-07
-2.38032e-10
3.10862e-11
-1.28342e-10
-3.10862e-11
-1.77636e-12
-495.246
-4.7314
-0.0227206
-7.29475e-05
-1.76306e-07
-3.0731e-10
7.77156e-11
0
-7.77156e-11
8.43769e-12
-495.246
-4.7314
-0.0227206
-7.29475e-05
-1.76225e-07
-3.51719e-10
0
0
5.06262e-11
6.66134e-11
-495.246
-4.7314
-0.0227206
-7.29474e-05
-1.76174e-07
-3.57048e-10
-5.59552e-11
5.28466e-11
6.39488e-11
-7.4607e-11
-495.246
-4.7314
-0.0227206
-7.29475e-05
-1.76273e-07
-3.7037e-10
5.06262e-11
1.86517e-11
0
0
-495.246
-4.7314
-0.0227206
-7.29475e-05
-1.76268e-07
-3.00648e-10
3.59712e-11
-2.84217e-11
-7.54952e-12
1.37668e-11
-495.246
-4.7314
-0.0227206
-7.29475e-05
-1.76177e-07
-3.69926e-10
-5.06262e-11
4.44089e-13
5.01821e-11
1.86517e-11
-495.246
-4.7314
-0.0227206
-7.29475e-05
-1.76242e-07
-3.61489e-10
-2.57572e-11
5.06262e-11
5.4623e-11
-5.4623e-11
-495.246
-4.7314
-0.0227206
-7.29475e-05
-1.76175e-07
-3.00648e-10
-3.10862e-12
-5.01821e-11
-1.95399e-11
7.72715e-11
-495.246
-4.7314
-0.0227206
-7.29474e-05
-1.76248e-07
-3.76588e-10
2.22045e-11
3.15303e-11
8.88178e-12
-8.88178e-12
-495.246
-4.7314
-0.0227206
-7.29474e-05
-1.76238e-07
-2.86438e-10
1.6076e-10
-1.34115e-10
0
-6.21725e-12
-495.246
-4.7314
-0.0227206
-7.29474e-05
-1.76192e-07
-3.59268e-10
1.33227e-11
-1.33227e-11
-4.44089e-13
1.37668e-11
-495.246
-4.7314
-0.0227206
-7.29474e-05
-1.7619e-07
-4.12115e-10
-1.46549e-11
-2.17604e-11
-5.9508e-11
5.9508e-11
-495.246
-4.7314
-0.0227206
-7.29475e-05
-1.76307e-07
-3.73035e-10
6.21725e-12
2.17604e-11
-7.10543e-12
6.26166e-11
-495.246
-4.7314
-0.0227206
-7.29474e-05
-1.76152e-07
-4.27214e-10
-7.01661e-11
7.01661e-11
2.57572e-11
-7.41629e-11
-495.246
-4.7314
-0.0227206
-7.29475e-05
-1.76152e-07
-4.21885e-10
-5.77316e-11
0
2.62013e-11
5.90639e-11
-495.246
-4.7314
-0.0227206
-7.29475e-05
-1.76228e-07
-3.61045e-10
-3.9968e-11
4.79616e-11
2.62013e-11
-5.24025e-11
-495.246
-4.7314
-0.0227206
-7.29475e-05
-1.76222e-07
-3.7037e-10
7.9492e-11
0
-5.77316e-11
-8.88178e-13
-495.246
-4.7314
-0.0227206
-7.29475e-05
-1.76228e-07
-3.10418e-10
-3.9968e-11
-5.06262e-11
-1.42109e-11
8.08242e-11
-495.246
-4.7314
-0.0227206
-7.29474e-05
-1.76169e-07
-3.73923e-10
-6.66134e-12
1.63869e-10
-1.19904e-11
-1.46994e-10
-495.246
-4.7314
-0.0227206
-7.29475e-05
-1.76038e-07
-2.38032e-10
-1.31894e-10
0
-3.10862e-11
-1.30118e-10
-495.246
-4.7314
-0.0227206
-7.29475e-05
-1.7621e-07
-3.07754e-10
-1.77636e-11
-6.03961e-11
-7.77156e-11
4.44089e-11
-495.246
-4.7314
-0.0227206
-7.29475e-05
-1.76221e-07
-3.51719e-10
1.86517e-11
-1.86517e-11
-1.82077e-11
4.04121e-11
-495.246
-4.7314
-0.0227206
-7.29474e-05
-1.7626e-07
-3.69926e-10
7.72715e-11
-7.41629e-11
-2.35367e-11
0
-495.246
-4.7314
-0.0227206
-7.29475e-05
-1.7627e-07
-3.04201e-10
6.92779e-11
0
-6.92779e-11
-4.75175e-11
-495.246
-4.7314
-0.0227206
-7.29475e-05
-1.76152e-07
-3.00648e-10
-1.46549e-11
-5.06262e-11
-7.54952e-12
3.59712e-11
-495.246
-4.7314
-0.0227206
-7.29475e-05
-1.76252e-07
-3.78808e-10
2.88658e-11
1.82077e-11
0
-1.82077e-11
-495.246
-4.7314
-0.0227206
-7.29474e-05
-1.76196e-07
-3.29514e-10
-2.62013e-11
1.82077e-11
8.17124e-11
-7.06102e-11
-495.246
-4.7314
-0.0227206
-7.29475e-05
-1.76251e-07
-3.51275e-10
6.66134e-11
3.5083e-11
-8.4821e-11
-3.55271e-11
-495.246
-4.7314
-0.0227206
-7.29475e-05
-1.76176e-07
-2.0961e-10
-1.73195e-11
-1.34115e-10
-6.66134e-12
-2.9754e-11
-495.246
-4.7314
-0.0227206
-7.29474e-05
-1.76115e-07
-3.78808e-10
4.44089e-13
-1.33227e-12
-1.08802e-10
2.66454e-11
-495.246
-4.7314
-0.0227206
-7.29474e-05
-1.7619e-07
-3.76588e-10
-1.73195e-11
-3.9968e-12
-4.44089e-12
1.66533e-10
-495.246
-4.7314
-0.0227206
-7.29474e-05
-1.76247e-07
-3.72147e-10
-8.88178e-13
2.75335e-11
0
-2.66454e-11
-495.246
-4.7314
-0.0227206
-7.29474e-05
-1.76207e-07
-2.89546e-10
1.11022e-11
-1.34115e-10
1.59872e-11
1.64313e-11
-495.246
-4.7314
-0.0227206
-7.29474e-05
-1.76205e-07
-3.74367e-10
0
3.15303e-11
0
-3.15303e-11
-495.246
-4.7314
-0.0227206
-7.29474e-05
-1.76198e-07
-3.96128e-10
2.22045e-11
4.44089e-12
1.77636e-12
1.73195e-11
-495.246
-4.7314
-0.0227206
-7.29474e-05
-1.76224e-07
-3.77476e-10
7.10543e-12
-7.10543e-12
-3.15303e-11
-2.39808e-11
-495.246
-4.7314
-0.0227206
-7.29474e-05
-1.76207e-07
-3.91687e-10
-5.32907e-12
8.88178e-12
-1.24345e-11
-1.46549e-11
-495.246
-4.7314
-0.0227206
-7.29474e-05
-1.76238e-07
-3.96572e-10
1.39444e-10
2.9754e-11
-1.39444e-10
1.33671e-10
-495.246
-4.7314
-0.0227206
-7.29475e-05
-1.76064e-07
-3.68594e-10
-1.35003e-10
1.36335e-10
1.35891e-10
-1.35447e-10
1.77636e-12
2.22045e-12
-2.66454e-12
3.9968e-12
-3.9968e-12
4.44089e-13
0
-2.22045e-12
5.77316e-12
-3.9968e-12
-7.54952e-12
-8.88178e-13
1.11022e-11
1.33227e-12
1.34559e-10
-1.02141e-11
-1.35891e-10
1.15463e-11
9.90319e-11
-8.88178e-13
-1.82077e-11
-2.17604e-11
1.77636e-12
-4.44089e-13
1.31006e-10
-1.06581e-11
-1.34559e-10
1.42109e-11
-1.33227e-12
-8.88178e-13
4.44089e-12
1.30118e-10
2.75335e-11
0
-5.41789e-11
2.22045e-12
2.62013e-11
-1.31894e-10
-6.21725e-12
0
1.47438e-10
0
-1.26565e-10
1.36779e-10
5.32907e-12
-1.4122e-10
-8.88178e-13
4.88498e-12
1.3145e-10
-4.44089e-13
-1.82077e-11
1.61648e-10
4.44089e-13
-1.38556e-10
1.31006e-10
-1.06581e-11
3.9968e-12
1.42109e-11
-1.39888e-10
-8.88178e-13
1.95399e-11
-1.37224e-10
1.77636e-12
0
4.88498e-12
-3.9968e-12
-8.88178e-13
3.33067e-11
1.31894e-10
-2.93099e-11
-6.21725e-12
-8.88178e-12
1.58984e-10
1.5099e-11
1.33227e-12
-2.66454e-11
-1.34559e-10
0
0
6.66134e-12
1.62981e-10
7.54952e-12
4.44089e-13
1.36335e-10
-1.77636e-12
-1.02141e-11
-1.31894e-10
-1.30562e-10
1.31894e-10
3.9968e-12
1.0969e-10
0
-8.88178e-13
0
4.44089e-13
-2.22045e-12
1.77636e-12
-9.72555e-11
-2.66454e-12
9.99201e-11
-7.54952e-12
-8.88178e-13
1.44329e-10
8.88178e-13
1.77636e-12
-2.4869e-11
-1.35891e-10
2.62013e-11
9.90319e-11
-8.88178e-13
-1.06581e-11
5.10703e-11
1.68754e-11
1.37668e-11
-7.99361e-12
9.76996e-12
-1.86517e-11
1.68754e-11
1.28786e-11
-9.19265e-11
-8.4821e-11
3.24185e-11
7.99361e-12
0
8.83738e-11
2.17604e-11
-2.44249e-11
-8.57092e-11
2.4869e-11
8.88178e-11
-4.04121e-11
3.9968e-11
0
6.66134e-12
7.72715e-11
3.5083e-11
0
-2.39808e-11
-3.01981e-11
1.28786e-11
4.70735e-11
3.24185e-11
-3.06422e-11
-5.86198e-11
6.21725e-11
2.08722e-11
-2.4869e-11
2.93099e-11
2.4869e-11
-1.06581e-11
-3.73035e-11
0
3.5083e-11
2.44249e-11
1.55431e-11
-4.26326e-11
-2.44249e-11
-5.50671e-11
2.4869e-11
7.19425e-11
-1.86517e-11
3.24185e-11
5.37348e-11
5.77316e-12
4.35207e-11
-2.39808e-11
0
2.75335e-11
-4.92939e-11
-9.76996e-12
-1.06581e-11
-3.24185e-11
7.72715e-11
3.24185e-11
1.33227e-12
-7.28306e-11
-5.77316e-12
0
0
7.54952e-11
4.66294e-11
0
3.5083e-11
2.44249e-11
1.55431e-11
-4.26326e-11
0
-5.4623e-11
0
9.72555e-11
6.66134e-12
1.44773e-10
-1.33227e-11
-1.35891e-10
1.06581e-11
-1.46549e-11
1.39888e-10
1.46549e-11
-5.77316e-12
1.35447e-10
-1.82077e-11
-2.17604e-11
1.77636e-12
1.39444e-10
-5.32907e-12
-7.54952e-12
1.77636e-12
-1.28786e-10
1.34559e-10
-3.55271e-12
-3.77476e-11
-2.4869e-11
-3.86358e-11
2.4869e-11
8.88178e-11
-4.26326e-11
-2.53131e-11
-5.37348e-11
2.44249e-11
5.37348e-11
5.50671e-11
-8.52651e-11
2.75335e-11
3.28626e-11
-4.21885e-11
-2.66454e-11
5.06262e-11
6.88338e-11
-5.06262e-11
1.02141e-11
4.84057e-11
5.10703e-11
-2.44249e-11
3.24185e-11
7.99361e-12
-2.22045e-12
0
-2.44249e-11
-5.81757e-11
-5.72875e-11
8.26006e-11
-6.66134e-11
0
0
-6.35048e-11
6.35048e-11
0
0
0
-6.35048e-11
-6.08402e-11
-4.35207e-11
8.08242e-11
0
-4.88498e-11
-4.52971e-11
5.68434e-11
0
-4.35207e-11
4.61853e-11
9.76996e-12
0
0
-2.17604e-11
1.15463e-11
6.39488e-11
0
-5.37348e-11
-2.17604e-11
5.55112e-11
6.92779e-11
-6.39488e-11
1.33227e-11
6.39488e-11
-6.83897e-11
-1.28786e-11
2.08722e-11
3.15303e-11
4.17444e-11
-6.21725e-12
1.9984e-11
0
-8.83738e-11
-2.22045e-11
0
2.88658e-11
3.9968e-11
4.17444e-11
0
-3.9968e-12
-3.01981e-11
4.44089e-13
-4.44089e-13
2.70894e-11
3.55271e-12
-3.06422e-11
4.44089e-13
0
2.66454e-11
3.10862e-12
4.44089e-12
-6.21725e-12
2.79776e-11
0
-2.79776e-11
1.38556e-10
-4.44089e-13
-1.31894e-10
-6.21725e-12
0
-4.04121e-11
-2.9754e-11
-4.44089e-13
6.21725e-12
7.99361e-12
3.4639e-11
9.14824e-11
-7.99361e-11
-2.22045e-12
6.92779e-11
-1.15463e-11
-1.42109e-11
3.64153e-11
3.24185e-11
7.99361e-12
-8.88178e-12
0
1.68754e-11
1.28786e-11
-2.66454e-11
1.19904e-11
-1.24345e-11
2.26485e-11
1.24345e-11
-5.32907e-11
1.64313e-11
0
1.77636e-12
6.35048e-11
-5.15143e-11
-8.43769e-11
-4.44089e-13
8.08242e-11
6.9722e-11
-8.12683e-11
-7.77156e-11
4.44089e-13
8.43769e-12
9.14824e-11
-8.88178e-13
0
-1.11022e-11
6.88338e-11
6.21725e-11
3.55271e-12
4.44089e-12
0
-1.33227e-11
1.86517e-11
1.5099e-11
-3.9968e-12
0
-2.26485e-11
7.01661e-11
1.15463e-11
-5.9508e-11
4.44089e-13
6.9722e-11
0
-8.08242e-11
-2.35367e-11
7.99361e-12
4.44089e-13
-2.13163e-11
-1.90958e-11
-5.9508e-11
-2.08722e-11
-8.88178e-13
2.17604e-11
8.12683e-11
2.84217e-11
-6.21725e-12
4.88498e-11
0
-1.73195e-11
3.37508e-11
-7.01661e-11
1.68754e-11
4.04121e-11
-4.04121e-11
3.9968e-12
0
-1.11022e-11
2.66454e-11
1.19904e-11
1.32339e-10
-4.44089e-13
-1.33227e-10
1.34115e-10
-2.53131e-11
-3.9968e-12
7.10543e-12
3.06422e-11
0
1.31006e-10
1.28786e-10
-1.31006e-10
-1.28786e-10
1.3145e-10
-4.44089e-13
7.72715e-11
2.44249e-11
-6.70575e-11
0
6.88338e-11
-3.28626e-11
0
-4.57412e-11
-4.30767e-11
3.55271e-11
9.9476e-11
3.55271e-11
-1.68754e-11
-3.59712e-11
-6.35048e-11
1.64313e-11
-1.02141e-11
4.66294e-11
1.06581e-11
-6.35048e-11
-4.52971e-11
2.17604e-11
8.52651e-11
-7.06102e-11
-8.57092e-11
-2.13163e-11
4.44089e-13
4.61853e-11
6.21725e-12
-4.70735e-11
8.21565e-11
0
0
0
-1.28786e-11
1.28786e-11
-6.92779e-11
0
6.92779e-11
-1.28786e-11
-3.9968e-11
5.28466e-11
6.70575e-11
0
-2.9754e-11
-3.9968e-12
-2.62013e-11
-5.9952e-11
5.19584e-11
1.24345e-11
1.9984e-11
0
0
-5.15143e-11
-6.9722e-11
7.06102e-11
5.06262e-11
-8.88178e-13
-4.9738e-11
-4.84057e-11
1.86517e-11
0
7.01661e-11
6.39488e-11
-7.50511e-11
-1.28786e-11
7.9492e-11
1.77636e-12
-1.59872e-11
2.22045e-11
-2.22045e-11
0
-4.70735e-11
0
8.21565e-11
-4.88498e-11
1.37668e-11
0
0
1.90958e-11
-5.32907e-12
-2.57572e-11
0
0
1.39888e-10
3.55271e-12
-1.17684e-10
0
-2.57572e-11
1.33227e-12
-1.82077e-11
1.61648e-10
-1.37668e-11
-1.38556e-10
1.49214e-10
-1.06581e-11
0
1.42109e-11
-1.39888e-10
1.35003e-10
5.50671e-11
1.28786e-11
-3.15303e-11
0
3.28626e-11
-6.21725e-11
0
6.08402e-11
-2.4869e-11
1.77636e-12
7.54952e-12
8.88178e-13
-8.88178e-13
-6.43929e-11
7.63833e-11
5.77316e-12
1.24345e-11
-4.88498e-12
-4.44089e-12
4.57412e-11
-2.66454e-12
-4.35207e-11
-8.21565e-11
-2.17604e-11
9.14824e-11
3.90799e-11
-1.86517e-11
3.55271e-11
-3.73035e-11
-3.9968e-12
8.17124e-11
-1.77636e-12
2.22045e-12
-3.64153e-11
-6.61693e-11
2.75335e-11
2.22045e-11
0
0
1.02141e-11
-4.44089e-12
9.14824e-11
2.9754e-11
-4.4853e-11
-5.41789e-11
-4.52971e-11
-3.28626e-11
5.59552e-11
4.66294e-11
2.84217e-11
1.9984e-11
3.77476e-11
4.88498e-12
1.55431e-11
-7.54952e-11
-4.88498e-12
2.22045e-11
0
2.93099e-11
-4.88498e-12
5.55112e-11
1.42109e-11
-2.88658e-11
-1.46549e-11
-5.24025e-11
7.9492e-11
7.9492e-11
-4.88498e-12
-2.22045e-12
0
7.01661e-11
-6.66134e-12
-2.39808e-11
-7.99361e-12
-4.57412e-11
4.88498e-11
3.55271e-11
0
-1.42109e-11
-3.9968e-12
6.66134e-12
1.43441e-10
-1.90958e-11
4.44089e-13
-7.99361e-12
-1.64313e-10
1.82077e-11
0
-1.77636e-11
2.13163e-11
2.88658e-11
7.99361e-12
8.88178e-13
1.36779e-10
1.31006e-10
-1.50546e-10
-1.31894e-10
1.46549e-11
-4.44089e-12
1.35891e-10
8.21565e-11
-2.4869e-11
-1.77636e-11
2.4869e-11
3.28626e-11
-6.21725e-11
-2.4869e-11
6.08402e-11
0
-4.17444e-11
1.90958e-11
-4.44089e-11
-2.22045e-11
5.24025e-11
0
4.44089e-13
1.19904e-11
-4.88498e-12
1.46549e-11
-6.9722e-11
-7.4607e-11
5.9952e-11
4.70735e-11
1.37668e-11
1.11022e-11
-2.4869e-11
-6.9722e-11
-4.79616e-11
0
5.9508e-11
-4.08562e-11
5.37348e-11
7.10543e-12
-1.82077e-11
6.08402e-11
3.37508e-11
-2.57572e-11
-6.03961e-11
-2.88658e-11
-1.02141e-11
0
-6.21725e-12
7.99361e-12
-1.95399e-11
-5.4623e-11
1.77636e-11
7.99361e-12
7.99361e-12
8.92619e-11
3.86358e-11
-2.22045e-11
-1.06581e-11
7.54952e-12
4.66294e-11
-5.41789e-11
-7.99361e-12
1.86517e-11
0
2.22045e-11
4.57412e-11
-1.46549e-11
1.42109e-11
0
-1.42109e-11
-4.04121e-11
7.4607e-11
7.99361e-11
-4.44089e-12
-2.22045e-12
3.9968e-12
4.88498e-11
-4.13003e-11
-3.15303e-11
-1.33227e-11
2.35367e-11
2.57572e-11
-6.9722e-11
-1.77636e-12
5.06262e-11
-6.43929e-11
-8.88178e-13
8.88178e-12
4.44089e-13
-2.66454e-11
-2.66454e-11
2.62013e-11
1.77636e-11
-4.44089e-13
1.43441e-10
-3.55271e-12
-1.43441e-10
1.2923e-10
-2.22045e-11
-1.25677e-10
1.61204e-10
-6.21725e-12
-1.30562e-10
0
-2.22045e-12
1.32339e-10
-6.66134e-12
8.43769e-12
-8.4821e-11
-2.22045e-12
9.14824e-11
-1.24345e-11
-4.44089e-13
-4.44089e-11
6.21725e-12
1.42109e-11
-1.86517e-11
8.88178e-13
6.39488e-11
0
3.55271e-11
1.5099e-11
-6.35048e-11
-5.77316e-12
4.26326e-11
4.44089e-13
4.66294e-11
7.99361e-12
0
4.44089e-13
-1.86517e-11
-8.12683e-11
0
0
4.92939e-11
4.13003e-11
2.88658e-11
1.42109e-11
-6.88338e-11
-1.46549e-11
7.86038e-11
3.95239e-11
1.95399e-11
-1.42109e-11
-5.77316e-12
4.84057e-11
5.50671e-11
-2.17604e-11
-6.66134e-12
2.17604e-11
-5.37348e-11
-6.39488e-11
0
5.37348e-11
-2.79776e-11
-7.86038e-11
0
1.46549e-11
0
-1.46549e-11
-4.44089e-12
6.75016e-11
6.12843e-11
1.55431e-11
-1.95399e-11
-8.43769e-12
3.15303e-11
7.01661e-11
-4.75175e-11
-2.04281e-11
6.66134e-11
-4.61853e-11
1.46549e-11
0
-3.59712e-11
1.73195e-11
6.88338e-11
-2.13163e-11
-2.26485e-11
2.17604e-11
4.70735e-11
-4.4853e-11
-5.81757e-11
-7.99361e-12
-2.75335e-11
3.5083e-11
-4.88498e-12
1.49658e-10
0
-3.64153e-11
1.65645e-10
-1.03473e-10
0
-3.55271e-12
0
-2.22045e-11
1.63425e-10
7.10543e-12
-1.37668e-10
1.36779e-10
1.35891e-10
-1.54987e-10
-1.31894e-10
1.42109e-11
-4.44089e-12
3.9968e-12
9.54792e-11
0
-6.75016e-11
1.86517e-11
6.92779e-11
-2.70894e-11
-2.4869e-11
-4.57412e-11
-1.82077e-11
7.90479e-11
8.43769e-12
0
7.99361e-11
0
-8.83738e-11
-2.70894e-11
7.81597e-11
-5.32907e-12
-3.73035e-11
1.02141e-11
-5.41789e-11
-1.06581e-11
9.54792e-11
8.34888e-11
-1.82077e-11
5.32907e-12
-7.06102e-11
-2.66454e-11
0
8.88178e-12
8.21565e-11
-1.06581e-11
2.66454e-12
8.4821e-11
-1.82077e-11
-1.06581e-11
2.66454e-12
0
0
-6.35048e-11
1.73195e-11
-6.21725e-12
-5.10703e-11
6.21725e-12
5.59552e-11
1.02141e-11
-6.17284e-11
1.33227e-11
7.68274e-11
1.55431e-11
1.90958e-11
7.28306e-11
5.32907e-12
-7.28306e-11
2.22045e-12
8.79297e-11
-9.54792e-11
0
4.75175e-11
-7.06102e-11
-9.59233e-11
1.46549e-11
0
6.21725e-12
1.42109e-11
1.95399e-11
7.9492e-11
-7.54952e-12
-4.57412e-11
1.64313e-11
8.92619e-11
5.90639e-11
4.88498e-12
-5.90639e-11
-9.41469e-11
7.06102e-11
5.37348e-11
5.77316e-12
-5.4623e-11
-8.88178e-12
7.10543e-12
2.88658e-11
-1.86517e-11
2.22045e-12
1.51434e-10
-3.06422e-11
-1.62981e-10
0
2.39808e-11
3.10862e-12
-2.57572e-11
1.11022e-10
3.64153e-11
0
9.76996e-11
-2.22045e-12
2.22045e-12
-9.72555e-11
-2.66454e-12
9.99201e-11
1.36335e-10
-1.36779e-10
-1.43885e-10
1.31894e-10
1.46994e-10
-1.31006e-10
-1.36779e-10
-2.66454e-11
8.88178e-13
1.73195e-11
1.52323e-10
0
-1.52323e-10
0
1.62981e-10
1.54543e-10
-1.5854e-10
-6.66134e-12
0
-1.48326e-10
2.22045e-12
-1.59872e-11
-1.02141e-11
-2.66454e-11
1.19904e-11
1.46549e-11
-2.66454e-11
1.44329e-10
2.13163e-11
-1.5854e-10
1.52323e-10
2.70894e-11
6.66134e-12
-4.44089e-12
-1.35447e-10
1.30118e-10
-2.39808e-11
0
0
-1.20792e-10
0
1.43441e-10
1.77636e-12
0
1.37224e-10
-1.33227e-12
-1.34115e-10
-1.37668e-10
-2.53131e-11
-3.10862e-12
1.63869e-10
2.88658e-11
8.88178e-13
-2.53131e-11
0
1.95399e-11
-1.63869e-10
1.39888e-10
1.64757e-10
-1.40776e-10
0
1.4877e-10
4.44089e-13
-4.44089e-13
1.25233e-10
-1.35447e-10
-9.81437e-11
-1.33227e-12
-2.57572e-11
2.53131e-11
-2.39808e-11
2.22045e-12
1.33227e-12
-1.39e-10
5.81757e-11
-2.75335e-11
-2.70894e-11
1.33227e-12
-2.75335e-11
1.62537e-10
-1.77636e-12
-8.88178e-13
-1.77636e-12
1.35447e-10
-1.33227e-10
-1.34559e-10
8.88178e-13
1.34115e-10
1.35003e-10
8.88178e-13
-5.77316e-12
2.22045e-12
0
-2.22045e-12
1.77636e-12
0
4.44089e-13
0
-1.34559e-10
-1.33227e-10
-9.9476e-11
-4.88498e-12
-8.88178e-13
5.77316e-12
-3.10862e-12
4.44089e-13
0
0
1.34559e-10
1.31894e-10
6.21725e-12
8.88178e-13
-2.22045e-12
-4.44089e-13
0
0
-1.95399e-11
0
1.51434e-10
1.31894e-10
6.21725e-12
-5.77316e-12
-2.66454e-11
-2.08722e-11
1.6076e-10
-4.44089e-13
4.44089e-13
4.44089e-13
1.33227e-12
1.62537e-10
4.88498e-12
1.33227e-12
0
1.35891e-10
0
0
-1.45217e-10
0
1.46105e-10
1.33227e-12
-2.53131e-11
2.93099e-11
1.66533e-10
1.07914e-10
0
0
-1.95399e-11
0
2.04281e-11
1.33227e-12
-1.35003e-10
-1.28786e-11
0
1.02141e-11
1.39888e-10
0
-1.33227e-12
-4.44089e-12
4.44089e-13
1.43885e-10
-8.88178e-13
1.95399e-11
-3.10862e-12
1.23901e-10
-1.59872e-11
-1.27454e-10
1.9984e-11
-1.77636e-12
1.35447e-10
1.40776e-10
-1.61648e-10
-1.02141e-11
1.66533e-10
1.47438e-10
0
0
-4.44089e-13
0
1.33227e-12
1.33227e-12
-3.9968e-12
-4.44089e-13
6.21725e-12
4.44089e-13
0
0
-1.38112e-10
0
-1.33227e-12
-1.39e-10
-9.9476e-11
-5.77316e-12
0
5.77316e-12
-3.10862e-12
4.44089e-13
0
0
1.34559e-10
1.31894e-10
-1.24345e-11
4.13003e-11
-4.44089e-13
2.39808e-11
-1.77636e-11
0
-1.77636e-12
-5.37348e-11
1.80744e-10
2.15827e-10
-9.72555e-11
-3.28626e-11
5.4623e-11
-1.06581e-11
4.35207e-11
-8.88178e-13
-6.92779e-11
0
6.83897e-11
4.08562e-11
3.01981e-11
-2.30926e-11
0
2.30926e-11
0
7.10543e-12
-3.10862e-11
0
3.24185e-11
-4.88498e-12
-3.06422e-11
1.02141e-11
-1.15463e-11
-1.06581e-11
4.35207e-11
-8.88178e-13
-5.72875e-11
0
4.70735e-11
3.33067e-11
-2.44249e-11
1.28786e-11
-8.88178e-13
-1.19904e-11
2.53131e-11
-8.88178e-13
-5.32907e-12
2.44249e-11
1.44329e-10
1.38112e-10
2.13163e-11
-4.39648e-11
3.55271e-12
4.35207e-11
2.44249e-11
0
0
0
1.35447e-10
1.59872e-10
-1.86517e-11
-2.93099e-11
2.44249e-11
3.28626e-11
-6.12843e-11
0
2.84217e-11
4.44089e-13
1.65201e-10
1.33227e-10
-2.53131e-11
-6.17284e-11
4.44089e-13
3.68594e-11
2.53131e-11
-8.88178e-13
8.88178e-13
0
4.44089e-13
2.62013e-11
-1.37668e-10
-1.4877e-10
-1.77636e-12
5.77316e-12
0
0
-2.30926e-11
0
1.67422e-10
1.44329e-10
-1.61204e-10
3.55271e-12
2.66454e-11
1.36335e-10
0
-1.39888e-10
-1.64313e-11
4.44089e-13
1.50546e-10
1.35003e-10
0
-3.9968e-11
-4.26326e-11
8.34888e-11
-8.88178e-13
-4.26326e-11
3.73035e-11
0
1.43885e-10
1.81188e-10
0
4.44089e-12
5.59552e-11
-5.68434e-11
-6.70575e-11
0
6.79456e-11
8.88178e-13
-7.10543e-12
5.06262e-11
5.86198e-11
4.13003e-11
-6.4837e-11
2.35367e-11
4.70735e-11
-6.52811e-11
-1.33227e-12
1.11022e-11
1.69642e-10
2.04725e-10
0
7.90479e-11
0
-7.90479e-11
0
0
7.90479e-11
0
-2.44249e-11
5.4623e-11
0
4.30767e-11
0
-4.30767e-11
0
0
-1.86517e-11
4.26326e-11
6.03961e-11
-1.77636e-12
8.88178e-13
1.42109e-11
6.61693e-11
-8.03801e-11
-4.44089e-11
6.57252e-11
5.90639e-11
0
-2.57572e-11
-1.19904e-11
-2.39808e-11
-8.03801e-11
4.30767e-11
4.52971e-11
-7.99361e-12
4.35207e-11
1.77636e-12
-4.92939e-11
-6.21725e-12
3.73035e-11
-2.13163e-11
1.24345e-11
6.57252e-11
-7.81597e-11
-4.44089e-11
6.57252e-11
5.37348e-11
-4.44089e-11
-2.13163e-11
3.33067e-11
4.44089e-13
1.56763e-10
-2.70894e-11
-1.29674e-10
-4.44089e-13
-2.66454e-11
1.57208e-10
0
5.32907e-12
1.62981e-10
-2.04281e-11
-5.77316e-12
2.66454e-11
-2.08722e-11
-4.44089e-13
4.30767e-11
1.35447e-10
-1.68754e-11
0
1.35003e-10
-1.95399e-11
-2.30926e-11
0
2.30926e-11
0
7.54952e-12
1.02141e-11
0
1.15463e-11
1.5099e-11
-7.99361e-12
2.57572e-11
0
-1.9984e-11
-2.30926e-11
0
4.26326e-11
0
1.36779e-10
1.56319e-10
-4.4853e-11
-1.33227e-12
3.68594e-11
7.81597e-11
-8.43769e-12
0
-3.55271e-12
0
1.54987e-10
1.42997e-10
-2.13163e-11
9.01501e-11
-7.06102e-11
-1.95399e-11
7.01661e-11
-7.06102e-11
1.59872e-11
4.44089e-13
6.21725e-12
9.23706e-11
-2.66454e-12
-6.88338e-11
-7.06102e-11
5.01821e-11
3.59712e-11
-2.39808e-11
-1.33227e-12
-3.55271e-11
4.57412e-11
8.08242e-11
-5.32907e-12
4.9738e-11
2.44249e-11
1.5099e-11
-8.92619e-11
2.44249e-11
4.70735e-11
0
4.39648e-11
8.88178e-13
-2.84217e-11
-7.10543e-11
9.19265e-11
3.59712e-11
-9.19265e-11
-1.90958e-11
9.01501e-11
5.37348e-11
2.22045e-12
0
4.08562e-11
-3.06422e-11
-7.06102e-11
5.01821e-11
-1.06581e-11
-2.39808e-11
4.52971e-11
-3.55271e-11
4.57412e-11
8.08242e-11
-1.34115e-10
1.56763e-10
-1.77636e-12
-1.30118e-10
0
-1.77636e-12
1.34115e-10
0
2.22045e-12
1.36335e-10
-1.30118e-10
4.44089e-13
-1.33227e-12
-8.88178e-13
0
0
1.77636e-12
0
1.30118e-10
1.31894e-10
4.35207e-11
-4.08562e-11
-4.26326e-11
8.34888e-11
-8.88178e-13
-4.26326e-11
-2.66454e-11
3.86358e-11
2.07834e-10
1.42553e-10
0
8.12683e-11
6.9722e-11
-8.12683e-11
-1.59872e-11
0
2.75335e-11
0
-2.66454e-11
5.4623e-11
8.30447e-11
4.13003e-11
-2.4869e-11
4.84057e-11
-7.99361e-12
-2.44249e-11
-1.15463e-11
-5.37348e-11
1.69642e-10
2.04725e-10
-5.06262e-11
-1.15463e-11
0
-3.90799e-11
5.06262e-11
0
-1.15463e-11
0
1.55431e-11
5.4623e-11
-8.43769e-12
-2.66454e-11
-4.44089e-11
2.66454e-11
0
0
2.39808e-11
0
2.66454e-11
5.06262e-11
6.57252e-11
5.06262e-11
-4.35207e-11
-5.15143e-11
0
0
5.06262e-11
8.88178e-13
2.4869e-11
7.59393e-11
1.5099e-11
-6.66134e-12
-4.4853e-11
1.06581e-11
4.08562e-11
-4.4853e-11
-3.95239e-11
-8.88178e-13
3.15303e-11
3.10862e-11
-9.59233e-11
3.19744e-11
6.88338e-11
-9.72555e-11
2.62013e-11
6.92779e-11
-1.77636e-12
-4.44089e-13
-2.44249e-11
-8.88178e-13
1.42997e-10
1.34559e-10
-1.38556e-10
3.9968e-12
0
-1.38556e-10
1.34559e-10
0
5.32907e-12
1.39888e-10
-2.53131e-11
-1.06581e-10
2.70894e-11
1.0747e-10
0
-1.39888e-10
4.44089e-13
0
1.40776e-10
1.40776e-10
-7.28306e-11
-1.55431e-11
9.72555e-11
-2.70894e-11
-2.53131e-11
4.35207e-11
1.82077e-11
0
-5.77316e-12
-1.24345e-11
0
4.30767e-11
3.9968e-12
-4.44089e-12
-4.26326e-11
4.44089e-12
4.26326e-11
8.88178e-13
1.36335e-10
1.36779e-10
-2.84217e-11
1.37668e-11
1.06581e-11
7.99361e-12
5.9952e-11
-2.66454e-11
6.21725e-12
-5.37348e-11
1.49214e-10
2.15827e-10
4.44089e-13
8.88178e-13
2.53131e-11
-5.32907e-11
1.95399e-11
1.33227e-11
-8.43769e-11
0
7.9492e-11
2.4869e-11
3.86358e-11
-5.77316e-11
3.10862e-12
5.77316e-11
-8.12683e-11
0
8.21565e-11
0
1.37668e-10
1.40776e-10
2.44249e-11
-2.04281e-11
3.10862e-12
2.84217e-11
-1.77636e-11
0
7.99361e-12
0
1.47882e-10
1.4122e-10
-5.15143e-11
-3.37508e-11
3.73035e-11
-1.42109e-11
1.95399e-11
2.35367e-11
-8.9706e-11
1.37668e-11
9.19265e-11
2.17604e-11
5.24025e-11
-4.88498e-11
2.66454e-12
5.77316e-11
-1.77636e-11
0
-2.4869e-11
0
1.80744e-10
1.4122e-10
4.30767e-11
3.55271e-12
1.04361e-10
-3.55271e-12
-1.2168e-10
2.57572e-11
4.44089e-13
0
1.35003e-10
1.18128e-10
-2.4869e-11
-1.47438e-10
1.66533e-10
1.47438e-10
0
0
-4.44089e-13
0
1.33227e-12
1.33227e-12
2.44249e-11
3.9968e-11
-4.30767e-11
3.10862e-12
0
-4.26326e-11
4.35207e-11
3.86358e-11
1.25677e-10
1.30118e-10
0
5.81757e-11
-7.99361e-12
1.59872e-11
-6.61693e-11
-7.99361e-12
4.52971e-11
0
1.70086e-10
1.49214e-10
2.08722e-11
3.9968e-12
4.39648e-11
-9.32587e-12
4.88498e-12
-1.77636e-11
1.59872e-11
4.88498e-12
3.55271e-12