/*--------------------------------*- C++ -*----------------------------------*\
  =========                 |
  \\      /  F ield         | OpenFOAM: The Open Source CFD Toolbox
   \\    /   O peration     | Website:  https://openfoam.org
    \\  /    A nd           | Version:  10
     \\/     M anipulation  |
\*---------------------------------------------------------------------------*/
FoamFile
{
    format      ascii;
    class       volScalarField;
    location    "2.4";
    object      gradTy;
}
// * * * * * * * * * * * * * * * * * * * * * * * * * * * * * * * * * * * * * //

dimensions      [0 -1 0 1 0 0 0];

internalField   nonuniform List<scalar> 
3000
(
-1.82876e-09
-3.33067e-11
3.59712e-11
-2.30926e-11
-2.44249e-11
-2.75335e-11
-3.4639e-11
-1.34559e-10
-2.75335e-11
-1.39e-10
-1.78613e-09
-3.28626e-11
2.66454e-11
1.73195e-11
-3.77476e-11
4.44089e-13
-5.68434e-11
-1.34559e-10
1.32339e-10
-1.18572e-10
1.19904e-11
4.44089e-13
-2.39808e-11
8.88178e-12
6.4837e-11
1.61204e-10
0
1.34115e-10
1.82077e-11
0
-4.88498e-11
1.02141e-11
-5.06262e-11
-4.13003e-11
-2.66454e-12
-3.15303e-11
2.35367e-11
1.34115e-10
0
-4.35207e-11
-2.84217e-11
-1.24345e-11
1.55431e-11
-1.02141e-11
-8.12683e-11
-1.34115e-10
-2.17604e-11
-1.6076e-10
1.4122e-10
2.08722e-11
0
-1.02141e-11
-5.32907e-12
-8.43769e-12
2.26485e-11
1.63425e-10
1.28342e-10
0
-1.15463e-11
0
4.92939e-11
8.26006e-11
5.77316e-12
3.73035e-11
3.81917e-11
4.44089e-13
1.06581e-11
1.6076e-10
-1.31894e-10
-3.68594e-11
-9.32587e-12
2.08722e-11
8.83738e-11
3.90799e-11
6.26166e-11
0
-1.28342e-10
-1.34115e-10
0
-3.9968e-12
-9.28146e-11
1.82299e-09
-1.73195e-11
3.77476e-11
-2.22045e-12
1.33671e-10
1.54543e-10
-6.21725e-12
-8.88178e-13
4.61853e-11
-4.30767e-11
1.87139e-09
-4.35207e-11
4.30767e-11
-4.79616e-11
2.22045e-12
1.41664e-10
1.2701e-10
-1.22569e-10
5.68434e-11
-1.86695e-09
2.57572e-11
-2.4869e-11
-5.72875e-11
-6.83897e-11
-5.4623e-11
-5.06262e-11
-1.57652e-10
-7.72715e-11
-2.22045e-12
-1.83586e-09
-3.9968e-11
1.24345e-11
-5.77316e-11
-9.54792e-11
-3.9968e-12
-9.10383e-11
-1.57208e-10
4.44089e-13
-1.15463e-11
3.10862e-12
4.44089e-12
2.30926e-11
1.11022e-11
6.57252e-11
7.4607e-11
1.42109e-11
-5.32907e-12
3.59712e-11
-5.19584e-11
-4.26326e-11
9.32587e-12
-4.9738e-11
-4.44089e-13
0
-6.92779e-11
4.66294e-11
1.33227e-11
-4.88498e-11
-6.66134e-11
-2.04281e-11
-6.92779e-11
1.42109e-11
2.26485e-11
-9.28146e-11
-2.39808e-11
-5.41789e-11
5.32907e-12
4.13003e-11
4.44089e-11
4.44089e-13
0
3.55271e-12
1.02141e-11
7.10543e-11
4.44089e-13
4.17444e-11
0
4.17444e-11
4.44089e-13
4.17444e-11
4.4853e-11
6.66134e-12
-2.22045e-11
8.34888e-11
8.43769e-12
2.88658e-11
1.33227e-11
-6.66134e-11
-5.63993e-11
-3.10862e-12
-1.33227e-12
7.63833e-11
0
2.26485e-11
9.63674e-11
0
-1.33227e-11
-6.03961e-11
-1.82077e-11
1.85096e-09
1.91802e-09
-1.77636e-11
-3.55271e-12
-3.55271e-12
3.77476e-11
3.9968e-11
1.42997e-10
3.9968e-11
6.21725e-11
1.88782e-09
1.95444e-09
-4.13003e-11
-2.66454e-12
-1.33227e-11
2.13163e-11
-1.9984e-11
1.56319e-10
4.04121e-11
9.10383e-11
-1.92024e-09
-2.70894e-11
-1.64313e-11
-2.79776e-11
-7.50511e-11
-3.06422e-11
-2.22045e-12
-8.88178e-12
-1.36335e-10
-3.15303e-11
-1.90115e-09
8.43769e-12
1.37668e-11
-8.92619e-11
-4.44089e-12
-4.44089e-12
-5.06262e-11
-6.66134e-12
-2.31815e-10
-1.16795e-10
4.17444e-11
6.52811e-11
-3.68594e-11
-3.28626e-11
2.75335e-11
-6.92779e-11
-2.53131e-11
-1.37668e-11
-9.59233e-11
-4.39648e-11
-5.01821e-11
-5.19584e-11
-3.64153e-11
0
-7.10543e-11
-9.54792e-11
-1.86517e-11
-7.4607e-11
0
0
-2.39808e-11
-2.93099e-11
6.70575e-11
-3.9968e-11
6.4837e-11
0
-2.22045e-11
1.55431e-11
0
2.84217e-11
0
4.04121e-11
-3.19744e-11
0
9.32587e-12
0
1.86517e-11
2.13163e-11
1.82077e-11
1.86517e-11
1.02141e-11
-3.37508e-11
-4.44089e-11
6.30607e-11
-1.02141e-11
9.72555e-11
0
-1.46549e-11
1.86517e-11
-6.92779e-11
9.32587e-11
5.24025e-11
-7.54952e-12
3.81917e-11
-9.32587e-12
0
0
-2.17604e-11
-1.82077e-11
5.10703e-11
1.88605e-09
1.88649e-09
-4.88498e-12
-1.59872e-11
-9.32587e-12
-2.84217e-11
5.06262e-11
-4.88498e-12
8.12683e-11
9.99201e-11
1.85407e-09
1.81277e-09
2.75335e-11
-2.66454e-12
7.23865e-11
6.83897e-11
4.9738e-11
5.4623e-11
9.99201e-11
3.06422e-11
-1.89004e-09
-2.70894e-11
-1.55431e-11
-1.5099e-11
-6.26166e-11
-4.08562e-11
-1.86517e-11
-1.61204e-10
-1.90958e-11
-5.50671e-11
-1.84786e-09
-2.79776e-11
-3.77476e-11
-2.62013e-11
-8.65974e-11
-9.59233e-11
-7.23865e-11
-2.06057e-10
-2.17604e-11
-5.50671e-11
1.64313e-11
1.19904e-11
0
3.4639e-11
0
1.82077e-11
-1.82077e-11
2.75335e-11
-1.82077e-11
1.42109e-11
-3.95239e-11
0
8.88178e-12
3.9968e-11
8.4821e-11
6.92779e-11
2.17604e-11
-2.17604e-11
2.39808e-11
5.24025e-11
-1.15463e-11
-1.19904e-11
-3.10862e-11
-3.5083e-11
4.26326e-11
2.35367e-11
3.06422e-11
-2.08722e-11
1.19904e-11
-5.4623e-11
-1.64313e-11
4.70735e-11
4.26326e-11
-3.95239e-11
0
1.55431e-11
0
-8.88178e-13
0
4.44089e-13
3.24185e-11
1.55431e-11
5.24025e-11
4.4853e-11
-5.90639e-11
-8.79297e-11
-7.10543e-12
8.88178e-13
1.11022e-11
7.72715e-11
1.68754e-11
9.76996e-12
-6.08402e-11
4.70735e-11
-1.82077e-11
-1.59872e-11
0
8.34888e-11
-7.41629e-11
-7.41629e-11
1.84874e-09
1.91225e-09
4.57412e-11
-2.93099e-11
7.90479e-11
8.30447e-11
1.56319e-10
-5.32907e-12
1.77636e-11
1.73195e-11
1.88205e-09
1.8705e-09
9.85878e-11
-2.13163e-11
2.04281e-11
2.22045e-11
1.94067e-10
-1.73195e-11
7.68274e-11
7.72715e-11
-1.85763e-09
-3.01981e-11
-9.76996e-12
-2.22045e-11
-7.50511e-11
-6.83897e-11
-3.15303e-11
-1.56319e-10
-1.85185e-10
-5.4623e-11
-1.90337e-09
-5.50671e-11
-7.10543e-12
-7.63833e-11
-7.54952e-11
2.66454e-11
-7.99361e-11
-2.16271e-10
-2.32259e-10
-7.28306e-11
2.84217e-11
5.59552e-11
1.28786e-11
-3.95239e-11
2.75335e-11
0
2.70894e-11
-4.84057e-11
-4.66294e-11
3.5083e-11
-3.10862e-12
0
0
4.79616e-11
0
-9.54792e-11
-1.90958e-11
5.06262e-11
0
8.88178e-13
-7.4607e-11
-8.39329e-11
-1.28786e-11
1.02141e-11
-2.75335e-11
0
-7.41629e-11
5.50671e-11
0
1.42109e-11
2.93099e-11
3.4639e-11
0
-4.79616e-11
0
0
0
0
0
6.92779e-11
2.70894e-11
7.63833e-11
6.35048e-11
-4.13003e-11
0
4.04121e-11
5.06262e-11
-6.9722e-11
6.88338e-11
-6.88338e-11
6.79456e-11
5.77316e-11
0
1.55431e-11
0
0
1.86517e-11
1.95399e-11
0
0
1.86073e-09
1.83142e-09
-3.33067e-11
8.79297e-11
7.54952e-11
2.84217e-11
0
7.63833e-11
0
9.99201e-11
1.7959e-09
1.81277e-09
2.75335e-11
5.77316e-11
7.50511e-11
6.83897e-11
4.9738e-11
2.22045e-12
6.83897e-11
3.06422e-11
-1.86873e-09
-2.79776e-11
-1.64313e-11
-1.77636e-11
-7.50511e-11
-3.06422e-11
-2.3137e-10
-1.77636e-12
-1.35891e-10
-7.54952e-11
-1.84253e-09
9.32587e-12
1.37668e-11
-9.63674e-11
-7.54952e-11
-9.99201e-11
-2.32259e-10
-7.10543e-12
-2.31815e-10
-1.16351e-10
1.06581e-11
6.52811e-11
-4.61853e-11
-2.93099e-11
9.32587e-12
2.66454e-11
8.4821e-11
4.44089e-13
-9.59233e-11
4.44089e-11
-5.06262e-11
-5.19584e-11
8.88178e-13
4.9738e-11
0
-4.44089e-13
6.57252e-11
2.04281e-11
6.57252e-11
0
1.37668e-11
-2.93099e-11
0
3.73035e-11
-9.32587e-12
-9.54792e-11
-6.57252e-11
-5.77316e-12
0
-1.55431e-11
0
0
-7.01661e-11
-2.30926e-11
9.76996e-12
8.43769e-11
-6.61693e-11
-5.28466e-11
3.55271e-12
6.88338e-11
-4.4853e-11
4.88498e-12
3.15303e-11
-2.53131e-11
2.70894e-11
7.23865e-11
3.5083e-11
-5.77316e-11
5.41789e-11
-2.84217e-11
9.37028e-11
9.28146e-11
-6.21725e-12
-2.53131e-11
-9.32587e-12
-1.55431e-11
4.04121e-11
0
1.55431e-11
-5.06262e-11
1.94067e-09
1.86207e-09
4.61853e-11
-3.9968e-11
4.4853e-11
-3.9968e-12
1.78524e-10
7.68274e-11
1.7808e-10
5.24025e-11
1.85407e-09
1.82654e-09
7.81597e-11
2.22045e-11
7.28306e-11
0
1.91847e-10
5.01821e-11
1.47438e-10
7.37188e-11
-1.87095e-09
6.21725e-12
-1.02141e-11
3.55271e-11
-6.30607e-11
-6.92779e-11
-1.32783e-10
-2.17604e-11
-4.44089e-12
-6.83897e-11
-1.86429e-09
-1.37668e-11
-4.21885e-11
-2.57572e-11
-8.92619e-11
-5.06262e-11
-2.02949e-10
-8.21565e-11
-7.4607e-11
4.44089e-13
-1.33227e-11
-1.46549e-11
-3.06422e-11
-4.66294e-11
1.33227e-12
8.52651e-11
-4.75175e-11
-4.84057e-11
4.88498e-12
9.23706e-11
4.13003e-11
4.08562e-11
1.33227e-12
4.79616e-11
0
-8.88178e-13
-1.86517e-11
5.06262e-11
0
0
6.26166e-11
-4.66294e-11
-8.43769e-12
2.75335e-11
-2.75335e-11
-6.57252e-11
2.88658e-11
2.53131e-11
-5.24025e-11
-4.57412e-11
-9.76996e-12
-7.99361e-12
0
-4.61853e-11
0
5.06262e-11
-4.44089e-13
-5.06262e-11
-1.86517e-11
0
-1.11022e-11
7.32747e-11
5.9952e-11
-3.9968e-12
9.32587e-12
2.13163e-11
-5.06262e-11
-3.9968e-11
2.88658e-11
2.22045e-11
7.99361e-12
-3.10862e-11
-4.44089e-13
-2.22045e-12
4.44089e-13
8.88178e-13
6.92779e-11
4.79616e-11
1.82077e-11
-2.22045e-11
1.86073e-09
1.87228e-09
-2.62013e-11
3.41949e-11
6.52811e-11
2.75335e-11
5.06262e-11
7.59393e-11
3.06422e-11
3.10862e-11
1.85141e-09
1.90337e-09
2.66454e-11
7.28306e-11
7.54952e-11
0
-8.88178e-13
2.4869e-11
8.17124e-11
5.28466e-11
-1.84741e-09
-3.41949e-11
-5.37348e-11
-4.21885e-11
-7.01661e-11
4.44089e-12
-1.43441e-10
-1.42997e-10
-2.17604e-11
-1.43441e-10
-1.88294e-09
-7.4607e-11
2.22045e-12
-2.88658e-11
-6.83897e-11
1.9984e-11
-1.93623e-10
-1.56319e-10
-8.21565e-11
-2.15383e-10
-2.66454e-11
-6.66134e-12
3.81917e-11
4.44089e-11
-7.01661e-11
-7.06102e-11
-8.39329e-11
-7.63833e-11
-4.84057e-11
-8.34888e-11
1.33227e-12
4.08562e-11
-1.06581e-11
-4.52971e-11
-6.66134e-12
-7.54952e-12
-2.13163e-11
-6.43929e-11
7.01661e-11
2.22045e-11
-7.54952e-12
6.66134e-12
3.41949e-11
-9.05942e-11
8.03801e-11
6.43929e-11
3.28626e-11
0
1.11022e-11
3.24185e-11
-4.44089e-11
-8.88178e-13
-5.06262e-11
4.61853e-11
-6.57252e-11
-3.06422e-11
-4.44089e-13
0
-2.17604e-11
0
3.41949e-11
1.64313e-11
-3.37508e-11
1.06581e-11
-7.63833e-11
-5.77316e-11
-2.57572e-11
7.9492e-11
-2.62013e-11
-4.88498e-12
4.9738e-11
1.24345e-11
0
0
0
0
5.06262e-11
0
-4.79616e-11
-4.08562e-11
1.80123e-09
1.83986e-09
-2.57572e-11
2.4869e-11
5.77316e-11
7.68274e-11
5.4623e-11
-8.88178e-12
2.17604e-10
3.77476e-11
1.8292e-09
1.8443e-09
1.82077e-11
-2.13163e-11
6.30607e-11
3.59712e-11
-4.44089e-13
7.10543e-11
2.14051e-10
7.32747e-11
-1.83542e-09
-3.01981e-11
-1.46549e-11
3.64153e-11
-6.30607e-11
-1.37224e-10
-1.32339e-10
-2.17604e-11
-1.92735e-10
-6.79456e-11
-1.80034e-09
3.95239e-11
-9.50351e-11
-4.88498e-11
-8.92619e-11
-2.31815e-10
-2.02061e-10
-8.21565e-11
-2.21156e-10
-6.88338e-11
-2.44249e-11
3.5083e-11
-3.37508e-11
-4.75175e-11
6.70575e-11
-9.59233e-11
3.9968e-12
0
-1.02141e-11
5.37348e-11
-5.50671e-11
-4.92939e-11
4.44089e-13
4.9738e-11
0
0
4.75175e-11
5.06262e-11
6.66134e-11
0
5.77316e-11
3.33067e-11
-4.61853e-11
-3.86358e-11
-9.32587e-11
6.92779e-11
-2.39808e-11
-2.30926e-11
0
-7.10543e-12
1.77636e-12
4.35207e-11
9.32587e-12
2.22045e-11
9.76996e-12
3.95239e-11
-6.57252e-11
0
-4.79616e-11
6.92779e-11
-2.4869e-11
-2.22045e-11
8.43769e-12
1.64313e-11
2.62013e-11
-2.84217e-11
-3.55271e-12
-3.9968e-11
6.66134e-11
4.88498e-11
4.84057e-11
4.88498e-12
-9.32587e-12
-2.30926e-11
-9.76996e-12
-2.17604e-11
1.90958e-11
1.55431e-11
3.5083e-11
-6.92779e-11
1.8221e-09
1.83675e-09
6.92779e-11
5.59552e-11
4.61853e-11
7.63833e-11
1.65645e-10
8.57092e-11
1.37668e-11
-3.10862e-12
1.80256e-09
1.81544e-09
7.81597e-11
2.26485e-11
7.28306e-11
9.76996e-11
2.14051e-10
1.5099e-11
4.35207e-11
9.28146e-11
6.70575e-11
2.9754e-11
-1.59872e-11
-4.26326e-11
-2.93099e-11
-1.18572e-10
-2.66454e-11
-1.34559e-10
-3.06422e-11
-2.9754e-11
3.81917e-11
-4.30767e-11
-2.35367e-11
-3.28626e-11
-3.37508e-11
-1.65201e-10
-2.70894e-11
-1.66089e-10
1.33227e-12
-5.68434e-11
4.84057e-11
-5.90639e-11
1.73195e-11
-3.01981e-11
7.37188e-11
-4.79616e-11
1.61204e-10
-2.04281e-11
3.10862e-11
0
8.88178e-13
0
0
-4.21885e-11
-2.66454e-12
0
-4.44089e-12
0
0
0
-1.90958e-11
-1.33227e-12
-2.53131e-11
-9.76996e-12
-5.90639e-11
0
-1.65645e-10
1.15463e-11
-2.66454e-11
-3.10862e-12
3.01981e-11
-4.88498e-12
0
4.21885e-11
3.55271e-11
2.39808e-11
3.15303e-11
3.10862e-11
-7.54952e-12
0
5.77316e-12
5.28466e-11
7.10543e-12
3.10862e-11
1.73195e-11
2.22045e-11
2.22045e-11
-5.77316e-12
2.70894e-11
-1.9984e-11
-2.9754e-11
5.72875e-11
0
1.5099e-11
-1.28786e-11
0
-3.15303e-11
1.31894e-10
4.88498e-12
2.44249e-11
1.73195e-09
1.90381e-09
7.99361e-11
4.44089e-13
-1.5099e-11
1.44329e-10
7.99361e-12
1.55431e-11
1.35447e-10
1.62981e-10
1.79456e-09
1.91669e-09
8.65974e-11
-3.19744e-11
2.66454e-12
1.42997e-10
3.01981e-11
-1.32783e-10
1.37668e-10
1.42997e-10
-1.31894e-10
-1.48326e-10
-1.35003e-10
-1.35447e-10
-1.37224e-10
3.9968e-12
-1.48326e-10
-1.31894e-10
-1.35447e-10
-3.77476e-11
-1.13687e-10
-1.38112e-10
-1.36779e-10
-1.34559e-10
-1.40332e-10
0
-1.51879e-10
-1.34559e-10
-1.34559e-10
-1.42109e-10
1.77636e-12
1.11022e-11
1.32783e-10
2.84217e-11
1.3145e-10
-1.6076e-10
1.44329e-10
1.33227e-12
4.44089e-13
-1.04361e-10
-1.82077e-11
1.23457e-10
3.10862e-12
-5.32907e-12
1.39888e-10
-1.31006e-10
9.32587e-12
3.10862e-12
0
1.36779e-10
-2.75335e-11
-2.22045e-12
3.9968e-12
-2.79776e-11
-1.34559e-10
1.56763e-10
-1.47438e-10
1.34115e-10
-4.44089e-13
0
1.37668e-10
-1.28342e-10
0
-4.44089e-13
-1.36779e-10
0
4.44089e-13
0
2.84217e-11
0
2.04281e-11
-2.44249e-11
-1.49214e-10
1.33227e-10
3.55271e-12
3.9968e-12
-1.15463e-11
-1.35003e-10
-2.62013e-11
5.32907e-12
-1.44329e-10
1.39e-10
0
1.38112e-10
1.37224e-10
1.31006e-10
1.30562e-10
0
-3.28626e-11
0
1.42553e-10
1.62093e-10
1.51434e-10
2.22045e-12
1.36779e-10
4.44089e-13
1.6076e-10
1.37224e-10
6.35048e-11
1.35003e-10
1.45661e-10
3.55271e-12
1.38112e-10
1.77636e-12
1.33227e-12
4.44089e-12
9.32587e-12
1.38112e-10
4.21885e-11
3.9968e-12
-9.05942e-11
-5.32907e-12
-3.86358e-11
-1.32783e-10
-2.57572e-11
-1.43441e-10
9.32587e-12
-2.57572e-11
4.44089e-13
-1.12799e-10
-5.77316e-11
-8.79297e-11
-2.4869e-11
-2.23377e-10
-2.62013e-11
-1.36335e-10
2.04281e-11
-2.62013e-11
-9.05942e-11
-1.00364e-10
-4.44089e-13
-8.26006e-11
-1.11022e-11
-9.9476e-11
-1.82077e-11
-1.37668e-11
7.10543e-12
5.77316e-12
-3.5083e-11
-3.68594e-11
4.44089e-13
6.57252e-11
0
2.66454e-11
-5.81757e-11
0
-5.86198e-11
0
5.63993e-11
0
6.4837e-11
4.75175e-11
2.44249e-11
8.21565e-11
4.30767e-11
1.95399e-11
-3.41949e-11
-5.77316e-12
-6.4837e-11
4.88498e-11
-8.88178e-13
-6.66134e-11
0
1.90958e-11
6.35048e-11
0
1.95399e-11
2.53131e-11
1.82077e-11
-4.88498e-11
1.95399e-11
-2.84217e-11
-1.33227e-11
1.37668e-11
-5.77316e-12
0
-3.59712e-11
1.86517e-11
1.82077e-11
-6.21725e-12
3.19744e-11
4.70735e-11
0
2.79776e-11
1.90958e-11
0
-4.44089e-13
0
-8.21565e-11
4.88498e-11
0
7.9492e-11
1.76748e-10
-1.11022e-11
8.43769e-12
-1.77636e-12
6.70575e-11
1.43885e-10
8.08242e-11
1.39e-10
1.82077e-11
5.15143e-11
1.62537e-10
3.10862e-12
2.22045e-12
-1.77636e-12
3.01981e-11
1.38112e-10
9.90319e-11
1.33227e-10
-1.95399e-11
-5.10703e-11
-2.35367e-11
-9.01501e-11
-1.38112e-10
3.55271e-12
-1.72751e-10
-2.35367e-11
-9.9476e-11
-1.33227e-10
-2.39808e-11
-4.39648e-11
-8.74856e-11
-1.77636e-11
-1.94955e-10
-5.32907e-11
-2.14495e-10
-3.55271e-12
-1.68754e-11
-1.89626e-10
-8.92619e-11
4.21885e-11
-1.33227e-11
5.63993e-11
-5.77316e-12
-2.53131e-11
3.41949e-11
0
6.4837e-11
-8.30447e-11
-7.54952e-12
2.75335e-11
1.06581e-11
0
-2.22045e-11
-2.13163e-11
6.83897e-11
-7.28306e-11
0
-2.17604e-11
8.88178e-11
-7.99361e-11
-4.44089e-12
2.39808e-11
-3.68594e-11
-3.24185e-11
-7.99361e-11
2.44249e-11
-5.59552e-11
3.9968e-11
-4.39648e-11
-5.37348e-11
2.13163e-11
-5.37348e-11
0
2.22045e-11
-4.44089e-13
2.22045e-11
-5.37348e-11
0
-1.95399e-11
6.08402e-11
-3.95239e-11
-6.66134e-12
2.35367e-11
-2.62013e-11
5.63993e-11
-6.17284e-11
8.70415e-11
2.30926e-11
0
5.9952e-11
0
-2.84217e-11
0
-4.04121e-11
-3.5083e-11
0
5.9952e-11
2.22045e-11
-4.88498e-12
8.88178e-13
5.90639e-11
-1.19904e-11
2.17604e-11
5.90639e-11
5.32907e-12
3.77476e-11
-2.53131e-11
2.22045e-11
3.28626e-11
-1.86517e-11
3.24185e-11
7.01661e-11
8.17124e-11
7.28306e-11
2.30926e-11
3.24185e-11
-1.86517e-11
5.9508e-11
-2.22045e-11
-1.00364e-10
-4.57412e-11
-1.27898e-10
-3.95239e-11
-9.19265e-11
-1.43885e-10
-4.44089e-13
-9.14824e-11
3.10862e-12
-2.79776e-11
-7.14984e-11
-3.5083e-11
-6.26166e-11
-2.66454e-12
-2.79776e-11
-1.49658e-10
-2.79776e-11
-8.88178e-13
-8.43769e-12
-2.93099e-11
6.61693e-11
-1.24345e-11
8.88178e-11
-6.21725e-12
2.79776e-11
-2.44249e-11
-6.35048e-11
5.77316e-11
2.22045e-12
-6.4837e-11
-1.9984e-11
-5.10703e-11
2.39808e-11
-1.28786e-11
-6.4837e-11
-8.21565e-11
-6.4837e-11
-9.10383e-11
1.42109e-11
-7.54952e-12
-6.61693e-11
-6.21725e-12
-1.95399e-11
4.30767e-11
3.68594e-11
3.15303e-11
3.68594e-11
1.64313e-11
-8.43769e-12
-4.44089e-13
8.03801e-11
-8.88178e-13
-2.26485e-11
0
7.06102e-11
1.82077e-11
7.06102e-11
7.99361e-11
-2.08722e-11
5.10703e-11
5.37348e-11
7.06102e-11
-1.46549e-11
-1.37668e-11
-3.77476e-11
-7.72715e-11
-5.86198e-11
-6.39488e-11
-5.59552e-11
4.66294e-11
-4.13003e-11
4.04121e-11
2.93099e-11
-2.93099e-11
4.44089e-13
6.39488e-11
-7.01661e-11
1.06581e-11
-2.9754e-11
-1.77636e-11
4.4853e-11
-2.57572e-11
3.41949e-11
2.13163e-11
6.43929e-11
2.13607e-10
8.61533e-11
8.08242e-11
1.98064e-10
1.90958e-11
5.24025e-11
2.53131e-11
-7.99361e-12
5.24025e-11
2.22045e-11
1.50102e-10
9.19265e-11
0
1.86517e-10
-1.86517e-11
2.75335e-11
-1.33227e-12
-7.01661e-11
-1.33227e-12
-1.33671e-10
-1.62981e-10
-1.33227e-12
-8.03801e-11
-1.76303e-10
-7.19425e-11
3.01981e-11
-4.44089e-11
-1.77636e-11
-7.99361e-11
-2.11831e-10
-1.92291e-10
-9.10383e-11
-1.73195e-11
-2.11386e-10
5.32907e-12
-8.70415e-11
3.10862e-12
6.52811e-11
-6.79456e-11
-8.92619e-11
-5.63993e-11
-8.92619e-11
3.64153e-11
-3.9968e-11
5.01821e-11
-1.73195e-11
1.42109e-11
0
5.06262e-11
5.01821e-11
4.70735e-11
-7.54952e-12
0
5.06262e-11
-3.68594e-11
1.9984e-11
-6.21725e-12
2.22045e-12
6.39488e-11
5.86198e-11
8.03801e-11
3.28626e-11
-2.62013e-11
7.86038e-11
0
6.21725e-12
0
7.10543e-12
-5.06262e-11
-5.06262e-11
6.21725e-12
6.88338e-11
6.21725e-12
-5.06262e-11
-2.62013e-11
-9.32587e-12
-7.86038e-11
-7.54952e-12
-1.5099e-11
-5.15143e-11
-2.39808e-11
5.37348e-11
3.81917e-11
-1.55431e-11
2.66454e-11
-4.21885e-11
2.66454e-11
-8.88178e-11
7.77156e-11
6.35048e-11
-4.17444e-11
2.66454e-11
-4.21885e-11
7.81597e-11
1.01696e-10
7.59393e-11
7.63833e-11
5.77316e-12
1.28786e-11
2.1938e-10
2.9754e-11
2.22045e-11
2.84217e-11
1.28786e-11
2.13163e-11
4.75175e-11
-4.88498e-12
9.4591e-11
-5.32907e-12
1.52323e-10
4.75175e-11
2.13163e-11
4.75175e-11
-5.32907e-12
1.19904e-11
-2.22045e-12
-1.37224e-10
-2.04281e-11
2.22045e-12
-1.37668e-10
-4.92939e-11
-1.37224e-10
-3.10862e-12
-2.08722e-11
-1.33227e-12
-8.92619e-11
-1.62093e-10
-7.68274e-11
-8.83738e-11
-1.49658e-10
-7.14984e-11
-1.36779e-10
-9.05942e-11
-8.88178e-13
-1.19904e-11
-1.37668e-11
-6.79456e-11
-6.39488e-11
-8.92619e-11
-6.21725e-12
1.11022e-11
-2.53131e-11
-1.42109e-11
-3.68594e-11
2.04281e-11
7.37188e-11
1.90958e-11
7.59393e-11
4.66294e-11
-6.57252e-11
6.88338e-11
-5.68434e-11
7.41629e-11
-5.24025e-11
-6.4837e-11
-1.77636e-11
7.01661e-11
9.41469e-11
4.66294e-11
-5.06262e-11
-3.86358e-11
-6.39488e-11
-1.77636e-11
1.82077e-11
-5.19584e-11
6.21725e-12
-1.33227e-11
8.88178e-12
3.86358e-11
-4.44089e-13
7.10543e-12
0
6.21725e-12
2.93099e-11
6.21725e-12
3.10862e-11
-7.01661e-11
-2.70894e-11
-3.95239e-11
-2.57572e-11
8.52651e-11
8.57092e-11
2.44249e-11
3.68594e-11
1.42109e-11
8.88178e-13
-2.9754e-11
-2.9754e-11
-5.28466e-11
0
0
1.42109e-11
0
-2.88658e-11
7.59393e-11
3.10862e-12
2.05169e-10
1.42109e-11
2.19824e-10
5.86198e-11
-2.39808e-11
-2.66454e-12
-1.86517e-11
-1.77636e-11
3.68594e-11
1.02141e-11
1.86073e-10
1.59872e-11
1.94067e-10
5.4623e-11
-1.86517e-11
3.59712e-11
-1.86517e-11
3.24185e-11
6.66134e-12
-1.59872e-11
-2.62013e-11
-3.4639e-11
-1.37668e-10
-1.33671e-10
-4.92939e-11
-2.62013e-11
-3.10862e-12
-2.08722e-11
-6.66134e-12
-9.32587e-12
-5.81757e-11
-3.28626e-11
-1.42997e-10
-1.64313e-10
8.43769e-12
-1.9984e-11
-1.11022e-11
-8.88178e-13
-7.81597e-11
-6.30607e-11
5.77316e-12
1.77636e-12
-5.32907e-12
-1.90958e-11
3.15303e-11
-6.52811e-11
-7.63833e-11
-6.4837e-11
-6.66134e-11
-6.03961e-11
3.19744e-11
-3.15303e-11
-3.86358e-11
2.9754e-11
-5.32907e-12
-8.43769e-12
-6.03961e-11
-5.19584e-11
3.59712e-11
2.79776e-11
-2.9754e-11
-1.11022e-11
-6.21725e-11
-7.77156e-11
-1.90958e-11
0
3.59712e-11
8.92619e-11
0
1.86517e-11
-6.4837e-11
1.90958e-11
-4.44089e-13
-9.59233e-11
-4.21885e-11
-5.06262e-11
1.86517e-11
0
-3.9968e-11
7.10543e-12
-1.90958e-11
0
-1.42109e-11
1.42109e-11
4.13003e-11
8.61533e-11
2.93099e-11
-6.21725e-12
7.72715e-11
4.92939e-11
4.70735e-11
9.76996e-12
-1.42109e-11
8.83738e-11
1.95399e-11
0
1.77636e-11
2.88658e-11
7.68274e-11
4.4853e-11
7.06102e-11
4.57412e-11
5.90639e-11
5.90639e-11
1.06581e-11
-3.10862e-12
1.46549e-11
1.42553e-10
-5.32907e-12
3.10862e-12
4.57412e-11
3.4639e-11
3.28626e-11
-1.55431e-11
3.28626e-11
7.23865e-11
3.4639e-11
1.65645e-10
-2.22045e-12
-6.21725e-12
-1.23457e-10
-6.83897e-11
0
-1.39e-10
-6.21725e-12
-7.99361e-12
-5.06262e-11
0
-1.59872e-11
-9.10383e-11
-1.45661e-10
-4.88498e-12
-1.9984e-11
-1.30562e-10
3.10862e-12
-6.43929e-11
-2.22045e-12
-1.9984e-11
0
-3.06422e-11
0
5.4623e-11
2.22045e-12
-5.55112e-11
-6.61693e-11
-5.55112e-11
-2.13163e-11
-1.19904e-11
-6.39488e-11
6.92779e-11
-4.88498e-11
-6.4837e-11
-6.35048e-11
-2.17604e-11
-3.90799e-11
6.17284e-11
-4.84057e-11
1.37668e-11
8.43769e-12
4.17444e-11
-2.13163e-11
3.4639e-11
0
0
1.64313e-11
-4.44089e-13
6.9722e-11
-7.77156e-11
0
-2.84217e-11
0
4.04121e-11
0
-4.26326e-11
2.70894e-11
0
5.68434e-11
-1.37668e-11
-8.52651e-11
-2.9754e-11
7.10543e-12
-7.01661e-11
-3.5083e-11
5.01821e-11
-1.64313e-11
6.43929e-11
-6.9722e-11
5.68434e-11
8.52651e-11
2.84217e-11
4.88498e-11
6.66134e-12
8.52651e-11
5.81757e-11
-2.75335e-11
-6.21725e-11
-5.06262e-11
-7.06102e-11
7.10543e-11
2.22045e-12
1.49214e-10
5.06262e-11
1.33227e-10
1.49214e-10
7.59393e-11
1.35003e-10
7.19425e-11
1.70086e-10
-1.46549e-11
0
1.56319e-10
2.13163e-11
9.85878e-11
1.39888e-10
3.9968e-11
1.98952e-10
4.44089e-11
2.2693e-10
-1.86517e-11
-1.36335e-10
-2.62013e-11
-6.61693e-11
-1.43885e-10
-1.33671e-10
-1.59872e-11
-2.62013e-11
-7.63833e-11
-3.90799e-11
-5.06262e-11
-2.23377e-10
-5.81757e-11
-5.77316e-12
-1.94955e-10
-2.30038e-10
-6.66134e-11
-1.9984e-11
-8.57092e-11
-5.37348e-11
-5.37348e-11
-9.59233e-11
-6.4837e-11
6.70575e-11
0
-1.95399e-11
3.06422e-11
-6.52811e-11
5.06262e-11
-4.66294e-11
-2.17604e-11
7.37188e-11
-3.24185e-11
-3.9968e-12
5.28466e-11
6.61693e-11
6.88338e-11
-8.43769e-12
7.37188e-11
2.93099e-11
3.59712e-11
6.43929e-11
4.04121e-11
-8.17124e-11
-3.73035e-11
-8.88178e-12
-3.10862e-11
0
7.99361e-12
7.63833e-11
-1.90958e-11
6.21725e-12
6.4837e-11
9.32587e-12
-9.32587e-11
2.9754e-11
6.21725e-12
-6.92779e-11
6.66134e-12
-2.17604e-11
-3.95239e-11
-6.43929e-11
-1.86517e-11
-1.37668e-11
-1.86517e-11
-5.4623e-11
-9.76996e-12
8.61533e-11
-2.9754e-11
-3.64153e-11
1.86517e-11
0
5.32907e-12
0
1.86517e-11
-9.59233e-11
0
5.4623e-11
4.88498e-12
-4.75175e-11
5.41789e-11
9.9476e-11
6.92779e-11
7.99361e-11
6.43929e-11
2.18048e-10
1.55431e-11
-2.4869e-11
2.26485e-11
4.52971e-11
5.06262e-11
1.02141e-11
2.04281e-11
-1.28786e-11
8.17124e-11
2.31815e-10
-1.86517e-11
1.42109e-11
-2.35367e-11
9.23706e-11
1.0969e-10
1.31894e-10
-1.38112e-10
-4.79616e-11
-5.77316e-12
4.44089e-13
-1.35003e-10
-1.38112e-10
-6.35048e-11
-1.35003e-10
-5.28466e-11
1.2168e-10
-1.63869e-10
-6.83897e-11
-1.63869e-10
-2.22045e-12
-6.21725e-12
-1.63425e-10
8.4821e-11
-1.61648e-10
-1.18572e-10
-1.34115e-10
2.22045e-12
0
-1.56319e-10
-1.35003e-10
-1.11022e-11
-2.4869e-11
1.5854e-10
-2.66454e-12
-4.44089e-12
0
2.22045e-11
1.58984e-10
1.77636e-11
-1.39444e-10
-6.66134e-12
-4.44089e-12
0
-3.9968e-12
-2.53131e-11
-5.77316e-12
1.34115e-10
6.21725e-12
1.6076e-10
1.32339e-10
1.43885e-10
2.4869e-11
-1.37668e-10
-2.22045e-11
0
1.15463e-11
3.10862e-12
3.9968e-12
-1.77636e-11
1.39e-10
-1.27898e-10
0
1.06581e-11
1.65201e-10
-6.66134e-12
-1.9984e-11
0
-2.08722e-11
0
-3.4639e-11
-1.33671e-10
4.44089e-13
3.9968e-12
0
1.63869e-10
-1.63869e-10
1.35891e-10
-1.62537e-10
2.22045e-11
-1.04361e-10
-2.39808e-11
3.19744e-11
-1.62537e-10
-1.61204e-10
1.55431e-11
1.61648e-10
-1.35003e-10
1.59872e-10
8.88178e-13
-9.90319e-11
1.33227e-12
4.44089e-13
1.36335e-10
1.61204e-10
-1.32783e-10
1.65201e-10
-1.35003e-10
1.61648e-10
1.39e-10
-2.84217e-11
3.10862e-11
0
1.64313e-10
1.62093e-10
-1.31894e-10
-1.31894e-10
-1.39444e-10
-1.31894e-10
-1.31894e-10
-1.37224e-10
-1.31894e-10
-1.36779e-10
-1.31894e-10
1.32339e-10
-1.31894e-10
-1.30118e-10
-1.33227e-10
-1.31894e-10
-1.31894e-10
-1.33227e-10
-1.31894e-10
-1.52767e-10
-1.31894e-10
1.33227e-10
1.77636e-12
1.77636e-12
1.77636e-12
-2.4869e-11
-2.4869e-11
1.38556e-10
-2.4869e-11
1.38556e-10
-2.4869e-11
5.77316e-12
0
1.35003e-10
0
1.36779e-10
1.36779e-10
1.36779e-10
1.36779e-10
1.15463e-11
1.36779e-10
6.21725e-12
-1.77636e-12
-3.10862e-11
3.37508e-11
1.62093e-10
1.62093e-10
1.33227e-12
1.62093e-10
-1.82077e-11
1.62093e-10
4.44089e-13
0
-1.39888e-10
-1.5099e-11
-1.39888e-10
-1.39888e-10
0
-1.39888e-10
1.43441e-10
-1.44329e-10
-1.77636e-12
-1.86517e-11
2.9754e-11
-2.84217e-11
-1.39888e-10
-1.24345e-11
-1.55875e-10
-1.39888e-10
-1.16795e-10
-1.41664e-10
-1.77636e-12
0
-2.70894e-11
3.55271e-12
1.39888e-10
1.40332e-10
0
1.39888e-10
4.44089e-13
1.44329e-10
1.77636e-12
1.56763e-10
1.31894e-10
1.36335e-10
1.40776e-10
1.28786e-11
1.56763e-10
1.40776e-10
-8.88178e-13
1.42553e-10
-1.37668e-10
1.38112e-10
1.61648e-10
1.47882e-10
1.33227e-12
1.33227e-12
1.33227e-12
1.33227e-12
-1.35891e-10
1.33227e-12
-1.39e-10
-9.14824e-11
-2.53131e-11
-4.35207e-11
-2.62013e-11
-2.53131e-11
-4.13003e-11
-2.62013e-11
-4.26326e-11
-7.9492e-11
4.44089e-12
-4.44089e-13
-9.81437e-11
-2.84217e-11
-4.35207e-11
-4.39648e-11
2.22045e-12
-4.35207e-11
-6.79456e-11
-4.44089e-11
-1.34559e-10
6.9722e-11
5.32907e-12
5.77316e-12
4.88498e-12
4.88498e-12
2.30926e-11
1.19904e-11
-6.66134e-12
6.61693e-11
-1.54987e-10
-4.30767e-11
6.57252e-11
0
0
0
8.88178e-13
0
1.19904e-11
4.44089e-13
-8.43769e-12
-5.32907e-12
-4.88498e-12
2.93099e-11
-4.88498e-12
-4.88498e-12
1.86517e-11
-1.19904e-11
4.44089e-11
1.19904e-11
1.55875e-10
1.82077e-11
2.66454e-12
-3.59712e-11
1.82077e-11
1.82077e-11
0
1.82077e-11
5.72875e-11
1.82077e-11
1.45661e-10
2.17604e-11
0
-1.95399e-11
2.44249e-11
2.44249e-11
-6.12843e-11
2.44249e-11
-2.66454e-11
0
-5.32907e-12
2.4869e-11
3.55271e-12
6.21725e-12
0
0
0
0
8.88178e-13
0
-1.34115e-10
1.39888e-10
2.04281e-11
2.08722e-11
-5.77316e-12
-5.77316e-12
5.50671e-11
-5.77316e-12
3.10862e-12
-5.77316e-12
5.32907e-12
1.37224e-10
1.95399e-11
4.92939e-11
1.82077e-11
1.82077e-11
-6.21725e-12
1.82077e-11
-2.88658e-11
1.82077e-11
1.36779e-10
-4.13003e-11
2.84217e-11
-8.57092e-11
-4.13003e-11
-1.38112e-10
-4.13003e-11
-4.13003e-11
1.15463e-11
-4.13003e-11
4.88498e-12
-2.66454e-12
-2.84217e-11
-1.33227e-12
4.44089e-13
-1.94955e-10
-6.66134e-11
-5.55112e-11
1.82077e-11
-5.55112e-11
-1.39e-10
-4.66294e-11
-2.53131e-11
3.55271e-11
-4.66294e-11
-2.53131e-11
4.44089e-13
-4.57412e-11
-3.77476e-11
-3.5083e-11
-1.28786e-11
-7.41629e-11
-2.13163e-11
0
-7.72715e-11
-2.13163e-11
-1.06581e-11
-2.22045e-11
0
-2.22045e-11
-1.73195e-11
4.66294e-11
-1.82077e-11
4.79616e-11
4.66294e-11
-1.82077e-11
0
4.66294e-11
-1.77636e-11
7.86038e-11
-1.27898e-10
6.61693e-11
0
1.77636e-12
6.61693e-11
0
2.13163e-11
6.61693e-11
1.77636e-12
6.61693e-11
0
3.41949e-11
0
-8.83738e-11
4.26326e-11
0
3.55271e-11
4.26326e-11
5.59552e-11
-4.88498e-11
-1.02141e-11
0
0
-1.77636e-12
0
0
-8.88178e-13
0
-5.32907e-12
-4.4853e-11
0
-1.5099e-11
4.52971e-11
2.21601e-10
-2.35367e-11
4.52971e-11
-1.5099e-11
-2.35367e-11
1.38556e-10
2.57572e-11
1.5099e-10
-1.19904e-11
8.17124e-11
1.32339e-10
-1.19904e-11
8.17124e-11
3.24185e-11
-1.19904e-11
1.36335e-10
3.24185e-11
1.62537e-10
-2.22045e-11
4.44089e-12
-3.9968e-11
-2.22045e-11
4.44089e-12
-2.08722e-11
-3.15303e-11
-1.46105e-10
-1.55431e-11
-1.35003e-10
-2.79776e-11
4.44089e-12
3.55271e-12
-2.22045e-11
4.44089e-12
-4.4853e-11
-3.90799e-11
-1.37668e-10
-2.22045e-11
-4.44089e-13
-6.35048e-11
-2.39808e-11
-4.08562e-11
1.37668e-11
1.37668e-11
3.9968e-12
7.10543e-12
-9.32587e-12
7.10543e-12
1.34115e-10
-6.4837e-11
8.88178e-13
0
-7.06102e-11
-4.44089e-13
2.30926e-11
-7.06102e-11
-3.10862e-12
-7.06102e-11
-1.34115e-10
8.34888e-11
3.37508e-11
1.42109e-11
-7.28306e-11
-1.28786e-11
-2.84217e-11
-3.64153e-11
-2.66454e-11
-7.28306e-11
-1.35447e-10
-4.44089e-13
-4.88498e-12
-3.95239e-11
9.01501e-11
-5.32907e-12
-6.9722e-11
8.92619e-11
-3.86358e-11
9.01501e-11
-8.88178e-13
2.66454e-12
-8.12683e-11
0
8.03801e-11
-1.37668e-11
-4.66294e-11
-8.88178e-12
4.39648e-11
8.03801e-11
0
5.06262e-11
1.59872e-11
-2.93099e-11
-7.90479e-11
5.77316e-12
0
-4.26326e-11
-1.33227e-12
-7.90479e-11
4.44089e-13
-2.53131e-11
9.23706e-11
2.01617e-10
-4.44089e-13
3.55271e-11
9.01501e-11
5.28466e-11
1.34559e-10
-4.44089e-13
1.35891e-10
1.42109e-11
1.15463e-11
2.02061e-10
7.9492e-11
2.17604e-11
9.10383e-11
4.35207e-11
1.79412e-10
7.9492e-11
1.35447e-10
-4.4853e-11
-3.10862e-12
-8.57092e-11
-4.4853e-11
-1.77636e-12
-4.4853e-11
-4.4853e-11
-7.23865e-11
-6.21725e-12
4.44089e-12
-7.9492e-11
-8.17124e-11
4.44089e-13
-9.32587e-12
-7.99361e-11
-2.57572e-11
-7.9492e-11
-4.44089e-13
-7.9492e-11
-1.57652e-10
-4.66294e-11
4.44089e-13
3.5083e-11
1.77636e-11
4.44089e-13
9.76996e-12
1.77636e-11
2.4869e-11
-7.4607e-11
-1.15463e-11
5.01821e-11
-4.44089e-13
-4.13003e-11
-7.01661e-11
-4.44089e-13
-3.10862e-12
0
-4.13003e-11
0
0
3.33067e-11
-1.28786e-11
-3.59712e-11
-3.15303e-11
-5.63993e-11
-2.35367e-11
-3.15303e-11
1.15463e-11
2.22045e-11
-1.31894e-10
-2.93099e-11
6.66134e-11
3.41949e-11
2.13163e-11
2.13163e-11
-2.93099e-11
2.13163e-11
3.33067e-11
2.13163e-11
4.30767e-11
4.84057e-11
7.99361e-12
6.83897e-11
7.99361e-12
5.28466e-11
4.84057e-11
7.99361e-12
-1.5099e-11
7.54952e-12
-1.15463e-11
2.62013e-11
-8.4821e-11
6.21725e-12
2.84217e-11
-4.08562e-11
5.59552e-11
2.84217e-11
2.22045e-12
2.88658e-11
-4.75175e-11
6.21725e-12
1.41664e-10
1.47882e-10
4.79616e-11
1.41664e-10
6.66134e-12
4.79616e-11
1.81188e-10
4.79616e-11
1.55431e-10
2.9754e-11
2.34035e-10
1.32783e-10
2.62013e-11
2.34035e-10
-4.44089e-13
2.62013e-11
1.36335e-10
2.62013e-11
1.66978e-10
-1.36779e-10
-6.83897e-11
-4.52971e-11
1.77636e-12
-1.81188e-10
-2.35367e-11
1.77636e-12
-4.44089e-12
1.77636e-12
-1.51879e-10
-1.803e-10
2.44249e-11
-3.01981e-11
1.33227e-12
-1.42553e-10
-4.08562e-11
1.33227e-12
1.33227e-12
1.33227e-12
-1.77636e-12
-1.90958e-11
7.10543e-12
8.88178e-12
-7.86038e-11
4.4853e-11
5.77316e-12
-2.4869e-11
-6.21725e-12
-7.86038e-11
1.4877e-10
3.90799e-11