/*--------------------------------*- C++ -*----------------------------------*\
  =========                 |
  \\      /  F ield         | OpenFOAM: The Open Source CFD Toolbox
   \\    /   O peration     | Website:  https://openfoam.org
    \\  /    A nd           | Version:  10
     \\/     M anipulation  |
\*---------------------------------------------------------------------------*/
FoamFile
{
    format      ascii;
    class       volScalarField;
    location    "0.3";
    object      gradTx;
}
// * * * * * * * * * * * * * * * * * * * * * * * * * * * * * * * * * * * * * //

dimensions      [0 -1 0 1 0 0 0];

internalField   nonuniform List<scalar> 
46825
(
1.49086e-13
-1.32471e-13
-6.78819e-12
1.08923e-13
1.15056e-11
-5.66988e-13
-9.36288e-12
5.83751e-13
4.13953e-12
-4.47299e-13
2.98106e-13
1.32386e-13
1.74989e-13
1.01795e-12
9.66042e-14
-1.1225e-12
-7.03789e-12
4.28053e-13
7.72577e-12
2.98125e-13
-5.65837e-12
1.55998e-12
5.52142e-12
-7.26645e-12
-5.47385e-12
-9.99948e-14
-4.92741e-13
5.40093e-13
7.20227e-13
-1.48912e-13
-1.48691e-13
1.4107e-13
-6.45342e-12
-5.63219e-13
6.47607e-12
2.40468e-13
7.89909e-12
-2.33786e-13
-7.68887e-12
2.97386e-13
5.19927e-12
5.89421e-12
3.74435e-13
-3.76315e-13
1.77645e-13
-1.59372e-13
7.32357e-12
-2.26703e-13
-6.84686e-12
4.45643e-13
-5.19988e-12
-3.78404e-13
1.75044e-13
-5.05574e-12
6.28659e-12
-1.42904e-14
-6.41584e-12
-1.25597e-13
-1.53433e-13
2.97125e-13
4.4621e-12
4.34055e-12
8.09386e-14
-5.17707e-12
-4.37301e-12
5.91091e-13
-9.45912e-13
6.52069e-14
3.76544e-13
2.97462e-13
-4.46889e-13
-1.42844e-13
4.77305e-12
-1.28848e-13
-4.82052e-12
2.53793e-13
-5.5446e-12
-2.43981e-14
5.835e-12
0
1.491e-13
-5.14814e-12
-7.57755e-14
4.90899e-12
2.18935e-13
-2.57299e-13
6.50762e-13
3.26917e-13
-5.81075e-13
-1.49101e-13
1.49119e-13
-1.23762e-15
-9.05901e-13
-6.98666e-14
5.94183e-13
-1.82756e-13
-4.87199e-13
-3.49144e-14
5.29112e-13
0
-2.98394e-13
-8.98411e-14
1.61714e-13
4.09524e-13
5.31773e-15
-1.67543e-14
5.22253e-12
-3.29396e-13
1.39586e-13
5.37177e-12
0
-5.95427e-14
-6.88818e-12
5.32946e-12
6.85821e-12
-5.57205e-12
4.87635e-14
4.33671e-13
7.39383e-14
1.49332e-13
0
1.2718e-12
1.1217e-11
-1.13414e-11
8.90881e-13
9.75981e-14
-4.99388e-13
-1.95049e-11
3.25438e-12
-1.49297e-13
-2.98387e-13
-2.54199e-12
1.14907e-12
1.26627e-11
-3.55334e-12
-9.88272e-12
4.55001e-15
7.73356e-13
-2.24291e-13
1.49197e-13
4.47474e-13
2.43037e-12
-1.18126e-11
1.18698e-11
6.37836e-13
-1.32049e-11
1.37415e-11
-1.18937e-11
2.28079e-12
-1.04409e-12
-1.49173e-13
-1.68276e-12
3.34493e-12
9.9817e-14
-7.26696e-13
2.12766e-13
-7.20012e-14
3.75483e-13
4.11329e-13
2.98332e-13
5.37248e-12
-1.72023e-12
-6.11014e-12
4.46094e-13
1.51404e-11
-1.51362e-11
-2.71129e-14
2.44122e-12
-7.47898e-13
0
0
2.1705e-12
-3.47853e-12
-1.91637e-12
2.05534e-12
-2.81624e-13
1.46844e-13
-4.62422e-15
-3.74218e-12
9.25893e-12
5.07825e-12
5.37253e-12
-2.81142e-14
-1.39656e-12
5.67387e-12
1.0858e-12
-1.16636e-11
8.80033e-14
6.33979e-12
4.48082e-13
2.98441e-13
-5.36732e-14
-4.59298e-13
-3.27603e-13
-7.08003e-14
7.84064e-13
2.03454e-13
-2.15123e-13
-5.82952e-12
-5.37226e-12
-7.75649e-12
-1.11292e-12
6.31704e-13
-7.08113e-12
-7.29326e-13
8.38442e-12
3.91456e-14
-8.63373e-12
-8.88615e-14
1.49191e-13
9.9975e-12
1.0244e-11
-2.22343e-13
1.69105e-13
3.79668e-13
-3.32432e-13
-3.09324e-13
1.10208e-11
-1.04122e-11
-1.49247e-13
-4.47221e-12
-4.56389e-12
7.30187e-13
-1.45918e-12
3.49603e-13
1.43233e-13
-8.96352e-13
-1.07452e-11
1.06261e-11
2.98189e-13
-1.31085e-11
-9.52842e-12
2.33651e-12
-4.81269e-08
-4.79557e-09
1.09093e-09
1.43139e-08
1.31073e-09
1.94707e-11
1.56419e-11
1.49007e-13
2.02795e-11
-1.71161e-11
-6.88229e-08
3.52163e-09
-8.06872e-10
-9.15787e-09
1.27428e-09
-1.84058e-13
-1.25167e-11
4.02337e-12
8.78512e-15
2.18816e-11
-7.07499e-08
3.77533e-09
-8.58955e-10
-9.64173e-09
1.30076e-09
-4.84283e-14
-2.98014e-13
-7.15116e-12
4.24627e-12
9.26315e-12
-6.13759e-08
2.79471e-09
-6.38029e-10
-6.95386e-09
1.35368e-09
-2.76558e-13
-2.68147e-12
2.83316e-12
-1.21012e-11
2.47862e-11
-6.16599e-11
-6.32902e-11
1.38103e-11
2.07582e-10
-5.28685e-12
-1.12749e-13
7.1571e-12
2.98511e-13
2.78577e-13
-1.66439e-11
1.75687e-11
-1.09596e-12
1.83201e-13
9.25804e-13
-1.33456e-11
1.24279e-11
-1.49258e-12
1.49171e-13
-1.21889e-13
4.61549e-14
-1.95008e-13
6.3496e-12
-1.46481e-13
-5.81215e-12
-8.10909e-14
-6.85819e-14
1.49187e-13
-6.54756e-12
2.90602e-13
6.29428e-12
-3.43657e-13
4.99631e-12
5.18042e-12
-5.0993e-12
-3.89266e-12
-1.09857e-13
-1.04198e-12
1.4558e-11
1.40618e-11
8.87972e-13
-1.65301e-11
-3.4831e-12
5.64372e-13
2.30692e-11
-2.89499e-12
-4.33651e-13
-4.45838e-13
-7.37934e-13
8.87836e-13
-7.2643e-10
-3.75749e-08
-1.03013e-09
3.02002e-10
2.62291e-09
9.16981e-08
3.8245e-08
-8.71079e-12
-7.77357e-12
2.90895e-09
8.87879e-06
-0.464329
-0.00258642
0.000162837
0.00696695
0.350462
3.36473e-07
-5.8681e-13
-4.9802e-12
2.85331e-09
9.15123e-06
-0.704277
-0.00882614
0.000524106
0.024988
0.461477
2.75214e-07
-5.27357e-12
6.59156e-12
2.8461e-09
9.20071e-06
-0.707661
-0.00921959
0.000553416
0.0256844
0.463123
2.71389e-07
5.85905e-12
3.22701e-12
2.89166e-09
9.03931e-06
-0.696087
-0.00911473
0.000522085
0.0254475
0.456083
2.8598e-07
-1.90669e-12
1.47616e-12
1.78445e-09
9.34089e-06
0.0021765
-0.00117307
-0.00190666
-0.00246733
-0.00971872
5.47283e-08
-8.8571e-13
1.48588e-13
-1.20539e-13
1.86645e-09
2.9658e-09
4.87256e-11
-5.31618e-12
-3.63336e-10
-3.39865e-09
-6.86635e-13
1.6347e-12
-5.50591e-12
-6.67051e-14
6.11361e-12
-2.03804e-13
-9.99805e-14
2.43733e-13
5.02338e-12
-1.77891e-13
-4.42719e-12
5.95335e-13
0
6.35505e-12
7.58626e-12
1.53123e-12
-7.46824e-12
-1.57404e-12
-2.08669e-13
-1.15383e-13
1.08438e-13
-6.09551e-12
2.96633e-13
1.52941e-12
1.53234e-11
3.82368e-10
1.14075e-10
-9.69719e-12
-2.42447e-10
-1.13609e-11
-3.05715e-11
2.67106e-12
-1.90964e-12
-6.83996e-11
-6.85046e-07
-0.00112176
0.000389868
6.51978e-05
-0.000391097
0.000430921
2.3266e-07
-7.34758e-12
-2.46751e-12
-3.70705e-09
-0.355013
5.59984e-05
-3.77478e-12
-5.78241e-12
-3.52422e-08
-0.432942
0.000153271
8.67443e-13
8.67407e-13
-3.27549e-08
-0.433812
0.000153417
1.0842e-11
-2.17764e-12
-4.02485e-08
-0.431849
0.000152152
2.75759e-12
1.46943e-13
4.1793e-10
0.0149748
-1.16153e-05
-4.26086e-12
8.60544e-12
3.03822e-12
3.65881e-09
1.5129e-06
1.59373e-07
-2.77048e-08
-6.87344e-07
4.27072e-07
4.95045e-11
-5.7874e-12
1.4862e-12
-4.36466e-12
-4.98951e-13
1.03119e-11
-2.53664e-13
-4.0598e-12
2.61229e-12
-8.25802e-13
2.12851e-12
4.90546e-12
-5.5006e-12
6.42778e-12
5.44195e-12
-6.5667e-12
1.65289e-13
-1.01062e-13
-3.28609e-14
3.46958e-13
-5.55777e-14
-1.4871e-13
-7.1273e-12
-9.25578e-12
1.39596e-11
-1.38996e-11
1.51576e-10
2.11293e-12
-3.47605e-10
-3.34242e-11
-4.31719e-14
4.45611e-13
1.17635e-12
-9.2647e-11
-7.16163e-07
0.0124883
0.000337168
6.82061e-05
-0.000600972
0.000498764
2.42001e-07
2.94081e-13
-1.45056e-13
8.54072e-10
-0.364501
9.8206e-05
-7.68738e-12
-2.45347e-12
-3.88343e-08
-0.451815
0.000181693
1.24118e-11
3.03098e-12
-3.51652e-08
-0.453066
0.000182427
1.41435e-11
5.65869e-12
-4.32904e-08
-0.450315
0.000178404
-3.77093e-12
3.08915e-12
5.1685e-10
0.0156242
-1.22506e-05
-2.79391e-12
1.29235e-11
1.94806e-14
3.8674e-09
1.7419e-06
2.34664e-07
-4.22929e-08
-9.72596e-07
4.79752e-07
6.18442e-11
5.94221e-13
4.75743e-12
-6.87873e-12
-4.90599e-12
7.127e-12
5.12612e-13
-2.96926e-13
-7.64949e-12
-5.14298e-12
1.27617e-11
1.08549e-11
-1.48749e-13
1.34562e-11
5.35666e-12
-8.10177e-12
-4.25205e-14
-7.3305e-12
1.09415e-13
2.11919e-12
-1.14193e-13
5.35667e-12
-6.9848e-12
-1.07741e-11
1.78521e-12
-4.92553e-11
1.39518e-10
-4.20652e-13
-3.37996e-10
-3.43882e-11
7.69191e-14
0
1.76603e-12
-8.97849e-11
-7.2123e-07
0.0125655
0.000337738
4.56258e-05
-0.000602012
0.000502776
2.44028e-07
-7.35766e-13
-6.24125e-12
3.43356e-09
-0.364981
9.90215e-05
1.30604e-12
-3.60974e-12
-3.46488e-08
-0.452749
0.00018248
2.74331e-12
-4.62092e-12
-3.20266e-08
-0.453944
0.00018315
8.23056e-12
1.45188e-12
-4.05893e-08
-0.451159
0.000178941
2.03216e-12
8.83375e-13
5.21966e-10
0.0156499
-1.22833e-05
7.36009e-13
1.4868e-13
4.37732e-14
3.84286e-09
1.7701e-06
2.47213e-07
-4.19442e-08
-9.83528e-07
4.8121e-07
5.99853e-11
-1.78438e-12
0
7.31987e-12
2.89111e-13
-1.47625e-11
-5.83688e-13
8.19649e-12
5.46745e-12
-3.53197e-13
-4.96329e-12
0
7.88767e-12
-3.57973e-13
-8.1836e-12
4.32057e-13
5.05939e-14
-9.25687e-13
-6.3654e-12
6.94245e-12
6.6668e-12
-6.55011e-12
8.92171e-13
-6.28757e-13
5.99125e-13
-5.83159e-11
1.46189e-10
-2.17248e-11
-3.19352e-10
-3.64714e-11
1.88097e-13
1.48743e-13
1.0897e-11
8.56868e-12
-7.16331e-07
0.012575
0.000337776
2.29387e-05
-0.000624604
0.000502919
2.42902e-07
1.91401e-12
-2.03337e-12
3.31233e-09
-0.365005
9.91511e-05
2.32324e-12
5.20162e-12
-3.46605e-08
-0.452773
0.000182549
3.90112e-12
-2.45654e-12
-3.18548e-08
-0.454036
0.000183183
5.78036e-13
-1.59811e-12
-4.04335e-08
-0.45118
0.00017448
1.74352e-12
0
5.0897e-10
0.0156477
-5.753e-06
2.94659e-12
1.63644e-12
-3.86119e-12
3.81956e-09
1.76957e-06
2.48585e-07
-4.11223e-08
-9.87392e-07
4.81168e-07
6.88405e-11
1.9343e-12
-5.65577e-12
-3.04323e-12
5.8603e-12
-5.7291e-12
-7.92208e-14
8.47392e-12
-5.01391e-13
4.85116e-13
3.8009e-13
-1.48862e-13
-6.69963e-12
-7.34249e-12
6.21585e-12
6.30223e-12
-6.5864e-12
1.2301e-12
5.31029e-13
-7.59839e-12
-1.10445e-12
-1.48922e-13
-1.48752e-13
6.46746e-14
-1.12953e-13
-2.03126e-11
1.24504e-10
5.86175e-12
-3.2023e-10
-5.76484e-11
1.06069e-11
-2.82716e-12
6.18831e-12
2.11604e-11
-7.16828e-07
0.0125608
0.000337565
4.56046e-05
-0.000624246
0.000503051
2.43661e-07
-1.47323e-13
-6.68854e-12
1.44378e-09
-0.36487
9.92188e-05
1.45374e-12
-1.44709e-13
-3.66771e-08
-0.452478
0.000182118
8.68238e-13
-1.27356e-11
-3.38885e-08
-0.453671
0.00018272
-5.21008e-12
-2.47264e-12
-4.27661e-08
-0.45088
0.000177723
-1.01812e-11
0
5.12424e-10
0.0156379
-2.9213e-05
2.80077e-12
-1.48825e-13
-2.05201e-12
3.82369e-09
1.75322e-06
2.4408e-07
-3.48159e-08
-9.65753e-07
4.77637e-07
5.7268e-11
2.6792e-12
0
5.2368e-12
-3.31176e-13
-5.33349e-12
4.16147e-13
1.97829e-14
7.66613e-15
5.82298e-12
3.7338e-14
-5.65876e-12
-2.97844e-13
-2.18493e-13
5.9585e-13
5.60603e-12
-2.11551e-13
-5.3751e-12
-1.42591e-13
5.27145e-14
-1.16876e-13
-1.4896e-13
2.97597e-13
-1.02543e-12
-1.41788e-11
-2.35671e-10
-3.94729e-11
1.86229e-11
1.94965e-11
-4.56736e-11
2.20053e-11
-6.10248e-12
6.63553e-12
8.12069e-12
-7.08506e-07
0.0106997
0.000263576
2.22407e-05
-0.000458258
0.000469536
2.39701e-07
-5.4555e-12
-2.91443e-12
1.48391e-08
-0.359041
7.82411e-05
2.91398e-13
-3.04811e-12
1.19072e-08
-0.439559
9.39021e-05
-1.74169e-12
-1.30644e-12
1.43797e-08
-0.440509
9.37459e-05
5.80608e-13
8.89133e-12
4.71803e-09
-0.438384
9.61341e-05
-1.31156e-12
-1.47514e-13
3.493e-10
0.0151906
-1.11132e-05
1.7699e-12
1.48861e-13
1.15879e-11
3.38712e-09
1.26525e-06
1.05537e-07
-1.37446e-08
-4.25274e-07
3.79598e-07
4.9621e-11
0
0
-5.90019e-14
-7.47406e-12
-5.9659e-13
8.53005e-12
8.69391e-13
-9.85798e-12
-4.00876e-13
9.37591e-12
0
-1.3107e-11
-6.1144e-12
7.65292e-12
5.3685e-13
3.71414e-14
7.83955e-12
6.97342e-14
-8.39396e-12
-8.49009e-14
0
-1.20547e-11
-9.32376e-12
-1.48846e-12
1.11216e-12
9.37845e-14
-8.53403e-14
4.3487e-13
-8.83268e-13
-1.30956e-12
-1.78611e-12
-2.50662e-12
5.7526e-12
-1.1468e-08
1.41552e-07
3.85644e-09
2.98314e-10
-7.49004e-09
-8.12589e-07
1.91182e-09
-2.21177e-12
-2.91418e-12
2.30323e-11
-1.80156e-05
-5.96076e-08
9.32514e-12
-1.45149e-13
1.4214e-11
-1.84839e-05
-6.24815e-08
1.45143e-13
6.5321e-12
1.13244e-11
-1.84902e-05
-6.26807e-08
2.32239e-12
7.43268e-12
2.03244e-11
-1.84532e-05
-6.18176e-08
2.18582e-12
-5.89996e-13
-4.75129e-11
-1.59932e-05
1.39466e-08
-2.35972e-12
1.19101e-12
-9.92228e-12
2.8346e-11
-5.63402e-10
-4.43267e-11
7.35006e-12
1.49347e-10
-1.00765e-09
-4.24031e-12
2.9776e-13
0
-3.40243e-13
3.34071e-14
3.56582e-13
-4.69196e-12
-4.8191e-14
4.16934e-12
1.55807e-13
1.31407e-12
2.97928e-13
0
1.59905e-14
-2.64827e-14
9.02868e-12
5.81742e-12
-8.72002e-12
3.32873e-13
-5.66757e-12
-7.05951e-12
4.46871e-12
8.9291e-13
-1.10783e-13
1.19138e-12
9.78875e-13
-1.00591e-12
-5.55112e-13
1.1273e-11
2.05943e-12
-1.32813e-11
1.93467e-12
-2.21016e-12
-8.92578e-12
2.48666e-11
1.99593e-11
-1.37365e-12
-2.48057e-11
-1.50767e-12
-8.74838e-12
4.00686e-12
-2.35769e-12
-2.3263e-12
5.34158e-12
-8.17369e-13
-2.75608e-12
-7.99724e-12
-1.21565e-11
-9.56099e-12
1.11532e-11
1.14823e-11
-2.74963e-12
2.89456e-13
-3.71496e-13
1.57819e-12
6.59464e-13
-1.44721e-13
0
-8.87118e-14
6.48668e-12
2.91421e-13
-9.45128e-12
-1.53285e-11
-5.27524e-12
-4.74553e-12
6.29185e-12
-6.33695e-12
-3.87042e-12
4.14734e-12
-6.0268e-13
-1.93902e-12
4.21336e-12
-1.98954e-12
-4.32005e-13
1.80539e-13
-3.82495e-14
-3.42366e-12
4.46836e-13
6.10382e-14
-7.63288e-13
1.05364e-13
-2.21879e-14
-6.9969e-13
-9.37093e-14
-6.90466e-12
4.87542e-13
7.14982e-12
-1.25105e-11
-2.32998e-13
1.222e-11
-5.07031e-12
5.45717e-12
4.96811e-12
-4.82651e-12
-2.71363e-13
1.92916e-13
-1.48942e-13
8.92825e-13
2.22389e-13
-1.132e-11
1.14286e-11
2.29925e-13
-1.84179e-13
-1.62563e-11
2.29501e-11
-6.10028e-12
2.38079e-12
2.94572e-13
-9.50026e-13
2.87655e-11
5.81071e-13
0
8.89217e-13
-1.95616e-12
-1.48528e-12
1.20929e-12
-2.94592e-12
-1.45253e-13
4.31888e-13
1.49369e-12
-5.72724e-13
0
0
1.26753e-12
1.08245e-11
1.46454e-13
-2.89052e-13
-1.15629e-12
2.08139e-13
-2.50252e-12
6.45741e-12
-3.90231e-12
-4.35818e-13
-1.23804e-13
9.4415e-13
3.06306e-12
7.55364e-12
-2.94653e-13
2.23261e-13
1.02264e-11
5.12295e-12
-1.04589e-11
-6.2513e-12
-1.10521e-11
-2.92868e-13
-5.86914e-12
-1.9837e-13
2.50808e-13
-8.10797e-13
7.36553e-13
-2.83161e-13
-1.04183e-12
-5.65947e-12
-1.14987e-11
-2.68427e-13
1.15488e-11
5.24142e-12
-5.51355e-12
-3.87018e-12
1.19099e-13
-1.18097e-12
-1.4894e-13
7.44638e-13
6.33843e-13
-4.60327e-15
-5.15451e-12
3.35577e-13
5.31197e-12
5.39283e-12
7.11361e-12
-5.8275e-12
-7.29766e-12
0
-1.00667e-12
5.95795e-13
1.19231e-11
-1.09286e-11
-1.1726e-11
1.0966e-11
2.05952e-12
-1.97367e-12
9.22533e-12
1.76728e-12
-2.33188e-12
-1.66955e-12
4.06824e-12
5.13233e-11
-1.88386e-11
3.80152e-13
-1.66535e-12
2.29432e-12
-2.94546e-13
1.45225e-13
-5.04636e-13
3.62996e-11
6.68623e-12
8.71349e-12
7.65814e-12
4.96581e-12
-9.79776e-13
1.04043e-11
-4.76817e-12
5.77993e-13
-1.85312e-12
6.9428e-12
-4.5518e-12
2.4564e-12
-2.03337e-12
1.56839e-11
-2.82496e-12
4.0129e-12
5.22841e-12
4.27183e-12
-3.05126e-12
4.32159e-13
-3.13035e-12
7.36468e-13
-6.69732e-12
-8.79537e-12
-1.20785e-12
1.64875e-12
-7.05759e-13
5.10546e-13
-1.04997e-11
1.09272e-11
-5.69769e-13
0
0
1.79311e-13
1.36346e-13
-4.58659e-13
-7.26822e-13
-6.7656e-12
6.67581e-12
9.54929e-12
-6.01449e-12
-1.93609e-12
2.38293e-12
2.62913e-12
7.38609e-13
7.30858e-12
-1.43716e-13
-1.98718e-12
1.75364e-13
-5.28913e-12
6.24381e-12
6.25539e-12
-1.78557e-12
8.59858e-13
2.97885e-13
1.52866e-11
-1.53582e-11
1.1403e-11
-1.12913e-11
0
1.09092e-11
-2.0832e-12
1.25194e-11
1.06094e-11
2.14201e-11
0
0
-7.38235e-13
5.41668e-11
-3.14675e-11
9.67322e-12
-2.94569e-12
-5.37489e-12
-1.70016e-12
-1.59587e-12
-5.74131e-12
2.61477e-12
-2.60191e-12
1.17241e-11
-2.51691e-11
-4.4685e-12
1.7346e-12
-1.34438e-11
-5.15237e-12
3.17633e-11
-3.37628e-12
1.44554e-13
-7.26411e-13
-2.80735e-13
-4.91123e-13
-6.20012e-12
1.16222e-12
7.21853e-12
-1.26843e-11
2.41994e-11
-1.38334e-11
1.26685e-11
1.17576e-11
7.39556e-12
1.53991e-11
-1.50701e-11
1.62416e-11
-3.36416e-11
1.63025e-11
5.97077e-13
3.46639e-13
-4.9113e-12
0
5.20508e-13
-6.88943e-12
-6.00066e-14
1.50421e-11
1.23655e-13
-8.02201e-12
-1.80661e-13
-1.47229e-13
0
5.95762e-13
3.25886e-13
6.40781e-13
-4.77331e-14
-3.88081e-13
-1.54623e-12
1.47457e-13
1.72858e-12
5.48798e-12
5.51114e-12
-5.80333e-12
1.54324e-12
-1.31019e-11
1.14627e-12
8.93071e-12
-1.03862e-11
5.16394e-13
0
-9.27218e-14
-2.67867e-12
7.07257e-12
7.10507e-12
1.49891e-13
0
-2.3576e-12
-1.54926e-12
5.74632e-13
4.45883e-12
4.10196e-12
0
-4.36341e-13
4.05277e-13
6.80646e-14
-7.26042e-14
3.78169e-12
1.44808e-13
2.64431e-13
1.1582e-11
4.82844e-12
-1.44808e-13
-1.88258e-12
3.71632e-12
3.98431e-12
-4.47079e-12
1.1585e-12
-9.74624e-12
-7.76872e-12
3.83706e-12
-5.10028e-13
0
-1.76858e-12
2.78936e-12
1.45407e-11
-1.79192e-11
4.56862e-12
-6.40037e-12
-7.37199e-12
-6.03474e-13
-1.55093e-11
1.54184e-11
1.5066e-13
-2.34523e-13
-1.50841e-13
3.5842e-13
-4.46525e-13
9.53265e-12
3.94985e-13
-9.76684e-12
-8.48311e-12
-2.10348e-13
7.7565e-12
5.76964e-13
7.98841e-12
-1.03866e-13
-8.19216e-12
-1.48961e-13
2.3103e-13
-6.98425e-12
-2.48168e-13
6.95754e-12
-1.95015e-13
2.53404e-14
5.87723e-14
-1.35149e-13
-2.9797e-13
1.19063e-12
5.01362e-14
1.6966e-11
-3.01131e-11
1.31825e-11
-1.36405e-11
1.44344e-11
1.16363e-12
-2.47368e-12
-1.93516e-12
0
-1.25095e-12
2.2301e-12
-2.57423e-13
4.83629e-11
-1.57104e-12
-4.96451e-15
4.52209e-13
-2.94581e-12
-1.47476e-13
-2.18638e-12
-4.63899e-13
-6.65924e-12
1.25455e-11
-1.8949e-12
1.45216e-13
1.79819e-13
4.33047e-12
-3.3168e-12
-4.35652e-13
-8.71334e-13
-9.98759e-13
-2.16993e-11
3.24842e-12
2.0331e-12
1.7493e-12
-5.61435e-12
-5.59234e-13
-3.45033e-12
1.45771e-13
-3.24525e-12
3.2826e-12
2.14965e-12
7.30394e-13
-3.98251e-12
1.04228e-12
-1.02476e-11
1.20363e-11
-2.90954e-12
3.99285e-13
-4.51923e-13
-1.91914e-11
1.98632e-11
2.4845e-13
-7.14684e-12
0
-2.16671e-13
1.95021e-13
-1.11463e-13
1.72653e-14
9.09927e-12
6.37278e-12
-8.94809e-12
-7.50434e-12
-4.46956e-13
5.95862e-13
8.71046e-13
-6.36865e-13
-1.44433e-13
4.60438e-13
2.01162e-14
-1.2177e-13
4.69601e-14
-1.72902e-13
-2.98006e-13
-6.99507e-12
-6.82385e-12
-2.97829e-13
-2.5713e-13
-8.70232e-14
5.55025e-13
4.58941e-13
2.94504e-13
-1.78805e-13
7.59309e-12
6.9305e-12
2.51542e-12
-1.06654e-12
-1.05702e-12
-1.33711e-12
-2.20506e-11
6.82802e-12
-6.23279e-13
7.79756e-13
-2.21223e-12
1.45656e-13
-2.25174e-13
-9.16607e-12
2.18768e-13
-9.03106e-12
-2.17567e-12
-1.13724e-11
8.34168e-12
1.68048e-11
1.45049e-13
0
-6.66585e-13
-2.23739e-12
9.00758e-12
-1.74064e-12
-1.45662e-12
3.57455e-12
-1.44337e-11
-8.14989e-12
-7.42865e-12
4.27754e-12
-3.14093e-12
-8.60965e-13
5.05159e-12
2.35993e-12
2.5317e-12
2.39247e-13
-5.18274e-13
4.52461e-13
3.52062e-13
-1.40904e-11
1.39367e-11
1.01786e-11
-9.95838e-12
2.97843e-13
-9.53604e-12
-6.51227e-13
9.69681e-12
1.60869e-13
-1.66852e-13
4.02823e-13
-1.62139e-13
-9.53903e-12
1.29581e-13
9.38705e-12
0
-9.84362e-14
2.20626e-13
2.40625e-13
1.92884e-14
-8.20911e-14
-3.74826e-13
3.71376e-14
-5.02564e-14
1.48993e-13
2.23194e-12
2.00189e-15
1.04276e-11
-1.05839e-11
1.23883e-12
-2.07659e-12
7.15235e-13
5.88491e-13
-1.06768e-13
-9.97337e-12
3.24187e-12
-4.33809e-12
1.43159e-12
-1.15819e-12
6.09176e-13
1.02283e-13
6.67734e-13
6.61206e-13
0
-5.7475e-12
1.45381e-13
-1.02951e-11
2.43055e-11
-1.54054e-12
-7.12359e-12
-1.30197e-12
1.13445e-11
-1.48945e-11
3.58417e-12
2.74868e-12
3.90602e-12
1.03105e-13
-9.4093e-14
-7.98859e-12
-7.66753e-12
1.45374e-13
-6.93144e-13
1.10116e-11
9.83666e-12
-3.19832e-12
-1.47386e-13
-1.91921e-13
7.1956e-12
3.43782e-12
6.92733e-12
1.11669e-11
8.64913e-12
2.11311e-12
-2.23172e-12
1.33357e-12
-1.1781e-13
-1.29221e-13
-3.8871e-14
1.43401e-13
8.63622e-12
-1.04297e-12
-6.86855e-12
1.36566e-12
3.12442e-13
-1.24527e-11
-1.12027e-13
-4.87747e-13
-7.48279e-14
1.25827e-11
7.00299e-12
0
6.11105e-12
2.58313e-13
-5.9986e-12
-3.31822e-14
-5.58672e-13
1.36223e-14
1.93411e-13
-1.11717e-13
2.98008e-13
5.80289e-12
-1.76871e-11
1.16206e-11
-8.76984e-14
8.21644e-14
-3.29993e-13
-1.61345e-11
1.5708e-11
8.96392e-13
-2.23284e-12
-6.92435e-12
-2.44395e-12
9.78279e-13
-1.79704e-11
-2.74764e-11
8.12578e-12
2.24267e-12
-2.51798e-11
2.20193e-11
-3.24122e-12
-1.45302e-13
6.95226e-13
9.87398e-12
3.26973e-12
7.11902e-12
2.89105e-13
-1.40098e-12
1.02905e-12
-1.52356e-11
2.31289e-12
-1.87923e-12
1.26302e-11
-1.07663e-11
3.4495e-12
2.60207e-12
5.81177e-13
3.07962e-12
1.70097e-12
2.18827e-11
-1.13333e-11
-1.47352e-13
5.6632e-13
-7.48944e-12
5.63575e-12
-2.94725e-13
-1.63774e-12
-1.10836e-12
5.39081e-13
8.86873e-13
-5.24341e-13
1.44923e-11
-1.41368e-11
-2.3973e-11
2.45888e-11
-4.467e-13
-2.98011e-13
5.35666e-12
-7.79865e-12
-5.41926e-12
5.08629e-12
-8.31427e-14
-5.46095e-12
-7.26152e-12
8.72404e-12
7.45046e-12
-4.47031e-13
2.53074e-14
-5.9822e-12
4.89829e-12
2.64047e-13
-1.75606e-11
6.39194e-12
1.2094e-11
6.43608e-12
5.9623e-12
-1.63728e-12
8.70877e-13
-1.19187e-12
1.17526e-13
1.25231e-13
-7.58929e-13
-2.59699e-13
-1.15052e-12
1.89103e-12
8.33874e-12
-1.62118e-12
2.19217e-11
-3.0252e-11
-2.72467e-11
8.05546e-13
1.62471e-12
-2.649e-11
1.67416e-12
-4.71858e-14
-5.89517e-12
-3.7797e-12
-3.13553e-12
3.11578e-11
2.47111e-12
-1.74422e-12
2.89271e-13
1.41175e-11
-4.85835e-12
5.78748e-12
-2.31417e-12
2.16959e-12
5.76042e-14
6.36076e-12
4.77109e-12
1.44643e-13
-2.90731e-13
-1.13894e-11
1.54301e-11
-3.50144e-12
0
0
-1.17383e-13
-1.58438e-12
1.21457e-12
-4.86477e-12
1.63827e-11
1.25812e-11
9.05971e-13
-5.6926e-12
5.74418e-12
1.36197e-15
5.90991e-13
-4.50686e-13
-1.09181e-11
3.27688e-12
0
3.82745e-13
1.78475e-13
2.29953e-14
-1.34039e-13
-4.57055e-13
4.07097e-13
7.42373e-13
-3.477e-13
-5.96255e-13
4.47369e-13
-1.81076e-13
-7.35233e-12
-5.19567e-12
6.93366e-12
5.31617e-12
-5.3216e-12
-1.23164e-11
-1.16825e-12
5.22065e-12
2.23468e-12
-5.63885e-13
1.19163e-12
-2.82566e-13
-2.70872e-14
-2.72805e-13
2.49997e-14
2.41604e-13
-1.30393e-11
4.91801e-12
1.16595e-11
9.92689e-12
-4.32137e-14
1.15909e-12
-1.94926e-11
2.63379e-11
8.99529e-13
3.50995e-13
1.96775e-12
-1.77122e-12
-7.86892e-12
-1.4845e-12
-3.87533e-11
-7.40641e-12
-7.13955e-12
-7.10853e-12
-8.69791e-12
7.99889e-13
-1.40484e-11
1.4506e-13
-7.39881e-12
-1.16426e-12
-4.53391e-13
-8.87002e-12
5.80267e-13
1.45719e-13
1.05679e-11
-1.64812e-11
-2.91475e-12
-1.60295e-12
5.01904e-12
1.1804e-11
2.41913e-11
-1.22875e-11
4.42909e-13
-2.08686e-12
-6.50752e-13
9.05518e-13
-1.1297e-11
1.13988e-11
-3.34952e-13
-1.04096e-11
2.54119e-11
-1.46506e-11
0
1.28278e-11
6.5957e-12
1.43942e-12
4.19746e-14
-1.33604e-11
4.95674e-12
5.78884e-12
-1.01365e-11
-1.3361e-12
3.28179e-12
-1.49254e-13
2.02702e-13
-1.43305e-13
-5.30683e-13
-1.4159e-13
-4.43121e-14
5.41024e-12
5.48919e-12
-6.11426e-12
-5.82185e-12
-2.5367e-12
-5.2242e-12
-1.07264e-11
1.03392e-11
8.89217e-14
2.16181e-13
-1.75972e-13
7.44891e-13
-8.53395e-13
-5.67155e-12
1.31842e-11
-2.50902e-12
8.924e-12
-5.78388e-13
6.57153e-13
2.35511e-11
-5.2279e-14
2.95835e-12
4.80707e-13
4.44542e-13
1.4676e-13
-1.10175e-13
2.62572e-13
1.23223e-12
2.20171e-12
1.46358e-13
1.11193e-11
9.02692e-12
-1.02992e-11
-4.09817e-12
0
2.40098e-13
-8.38908e-13
-1.46326e-13
-1.46374e-13
9.83396e-12
8.26715e-12
2.73676e-13
1.19372e-11
-2.64249e-12
9.18643e-12
1.05954e-11
-1.43637e-13
-1.68689e-11
4.5948e-12
7.01591e-12
6.94533e-12
1.35668e-11
-2.89242e-11
1.50814e-11
-3.32666e-13
3.81012e-13
-9.45031e-13
1.06565e-11
4.47937e-13
2.98556e-13
4.84146e-13
3.28764e-13
4.11673e-13
-5.80745e-13
-1.37716e-13
-6.59701e-12
-6.60072e-12
6.87369e-12
6.42002e-12
0
8.03464e-13
2.74578e-13
-1.06664e-12
-1.03418e-13
9.11408e-14
3.82738e-13
-1.07537e-13
-3.98657e-13
0
1.64185e-12
1.11406e-11
1.19551e-12
-3.16035e-14
1.07771e-12
-1.59528e-12
5.94631e-13
3.80491e-13
-1.44284e-13
0
-3.12324e-12
1.43101e-11
1.97385e-11
8.50789e-14
2.1802e-11
2.05726e-11
1.55292e-12
-1.86916e-13
2.23582e-11
-1.33922e-12
2.51764e-12
-6.59328e-12
-1.70911e-11
1.19714e-11
-1.63029e-12
-2.95921e-12
7.43219e-13
-3.89251e-11
5.48394e-12
-3.55404e-12
2.95935e-13
9.66884e-13
-6.74395e-12
6.07359e-12
-1.92528e-12
0
3.71087e-13
1.64525e-11
-4.54823e-12
1.92726e-12
1.01159e-11
8.88752e-12
6.5267e-12
3.71216e-13
0
1.49303e-13
-1.65611e-13
-1.05807e-11
8.43625e-12
3.23007e-12
-1.19926e-11
1.08203e-11
7.22858e-13
-1.79625e-14
7.01966e-12
-6.86422e-12
3.00222e-12
9.78663e-12
-3.07421e-13
1.17677e-14
-5.78635e-14
5.24466e-12
-2.5379e-13
-4.90206e-12
0
4.91295e-12
5.86424e-12
9.23733e-13
-3.71776e-13
-7.90226e-13
1.96607e-14
1.23553e-11
3.47199e-13
-1.21151e-11
1.48878e-13
0
1.25791e-12
-1.60789e-13
-2.3707e-12
1.18661e-12
5.70313e-13
-1.91539e-13
3.11488e-13
-5.50214e-13
1.78633e-12
-3.71368e-12
1.99899e-11
-1.7096e-11
8.99443e-13
3.16397e-13
-2.54766e-13
-5.50926e-12
9.78587e-12
-9.82076e-12
0
-1.0973e-11
-2.15541e-11
1.26215e-11
5.36588e-13
-9.18068e-13
7.13579e-13
1.03819e-11
8.07299e-12
1.62895e-12
6.97172e-12
-9.78414e-12
-7.48928e-12
-1.30053e-11
1.85196e-11
-1.4768e-11
3.03235e-13
-1.12659e-11
-5.446e-12
-1.42502e-13
2.37279e-12
2.2238e-12
-3.63738e-12
4.33339e-13
-7.40489e-13
2.27012e-12
1.30255e-11
-2.15486e-13
-2.00967e-11
1.31314e-11
-4.44943e-12
1.48309e-13
-1.1401e-11
1.68189e-11
8.4267e-12
7.69298e-13
2.39461e-13
-5.27111e-13
-6.5969e-12
-1.09792e-11
-2.5224e-12
-2.97167e-13
-1.70737e-11
1.86979e-11
-2.95768e-11
4.25467e-14
-4.81934e-12
-1.09114e-12
2.58413e-11
9.57949e-12
-1.6351e-12
-1.2803e-11
-2.34215e-11
1.0697e-11
-1.01653e-13
-1.35677e-11
1.40086e-11
1.20305e-13
-2.10326e-13
-5.25712e-13
1.63807e-12
2.97743e-13
2.15794e-13
2.29045e-13
6.21392e-12
-3.57487e-13
-4.84605e-14
7.7614e-14
-6.04245e-12
-5.96924e-13
-7.44531e-13
7.4233e-13
7.45968e-13
-1.90983e-13
-1.63534e-13
-3.45335e-14
6.85557e-12
5.45236e-12
-9.03437e-13
-5.42325e-12
-5.79016e-12
5.93431e-12
-2.07872e-14
-1.16283e-11
-8.84381e-12
5.83195e-12
6.82163e-13
1.22405e-13
1.50385e-11
-5.0999e-12
-1.20188e-11
1.4814e-13
5.68654e-12
8.89014e-13
-1.84616e-12
8.82026e-13
-5.88236e-13
2.93845e-13
1.44015e-11
-1.4902e-11
1.92693e-12
-1.47983e-13
5.05231e-12
-3.80036e-12
-2.88329e-13
7.99514e-13
-8.87228e-13
0
1.05502e-11
-6.0411e-12
-5.9202e-13
5.03031e-12
-2.10276e-12
-5.83851e-12
-7.21379e-13
-2.45339e-12
7.47167e-12
-1.6143e-12
3.9801e-12
-3.32032e-13
-7.39871e-13
5.47444e-12
-2.36113e-12
-3.33716e-12
-4.88124e-14
5.68664e-12
-1.02782e-11
5.67335e-12
-3.77398e-12
-7.60033e-12
-8.87888e-13
0
-8.04051e-12
-1.11737e-13
-1.15356e-11
3.70747e-14
6.28418e-12
3.80806e-12
-5.02117e-12
-2.39755e-12
8.14151e-12
5.18569e-12
-1.32951e-12
-6.86873e-12
1.4896e-13
-9.2234e-13
3.81713e-13
2.57971e-13
-1.18738e-11
-3.47176e-12
-5.3348e-12
-1.48373e-13
-2.07336e-12
-1.03614e-11
5.12564e-12
-5.85585e-13
4.67181e-13
6.67923e-12
-4.12658e-13
-6.09394e-12
0
4.45377e-13
4.0759e-13
-3.4825e-13
6.04403e-12
6.58526e-14
-6.58054e-12
-2.83018e-13
3.46064e-13
6.53503e-14
0
4.44611e-13
1.70009e-13
5.7683e-13
4.07344e-13
4.6198e-12
-1.54041e-13
-9.80193e-12
2.86028e-13
4.56349e-12
-2.96402e-13
1.21457e-11
5.73245e-12
-6.75762e-12
-6.31408e-13
-2.5991e-13
-1.2586e-12
1.80509e-13
1.14508e-12
-3.60569e-14
1.48118e-13
5.92003e-12
-6.35057e-13
-6.49149e-13
5.93469e-12
2.68648e-13
-2.25356e-13
6.6643e-12
7.02183e-12
-4.81188e-12
-4.5884e-12
8.57937e-12
3.93009e-13
-8.29866e-12
-3.69623e-12
-2.64452e-13
3.30546e-12
6.22825e-12
-2.44136e-14
-6.18733e-12
-1.4792e-13
0
8.30079e-12
1.97015e-13
-8.65677e-12
8.50351e-14
-3.10447e-13
6.61818e-12
-3.44557e-13
-9.45319e-12
-2.07046e-12
-6.80364e-12
-4.08574e-13
6.85103e-12
4.26221e-13
2.08464e-13
-5.91856e-13
-1.16568e-12
-1.10347e-13
8.36491e-13
0
-6.9526e-12
-7.52157e-12
4.95985e-12
-2.87743e-13
-5.36937e-12
6.42335e-13
-5.73601e-12
4.25974e-14
5.43508e-12
-2.95839e-13
-5.92027e-13
-5.15473e-13
5.11463e-12
-1.89433e-13
-1.07717e-11
-2.30194e-13
6.20968e-12
-3.27644e-15
-4.99875e-12
-4.88417e-12
0
-4.03011e-14
1.75122e-13
-9.49666e-14
-1.15833e-13
6.50034e-12
-3.37147e-13
-6.24796e-12
1.30846e-13
-1.4812e-13
-1.48196e-12
5.60813e-12
7.02015e-12
-3.14531e-14
-2.16714e-13
1.58221e-14
3.68381e-13
-9.63062e-14
4.62847e-14
1.482e-13
2.96112e-13
-4.70988e-14
-6.59486e-12
5.20969e-12
6.61197e-12
-5.00047e-12
-2.60838e-13
5.85085e-12
-1.72331e-13
-5.77401e-12
-2.96014e-13
-8.9941e-12
-8.21118e-12
6.00512e-13
-5.45583e-13
8.86844e-14
8.50774e-13
6.18234e-13
4.52669e-12
4.58811e-12
-5.91781e-13
-3.80924e-13
-1.90893e-14
7.07258e-15
-1.0709e-13
-1.62056e-13
-3.16789e-14
6.05434e-14
5.68018e-12
5.47386e-12
5.17665e-12
5.38369e-13
-5.10246e-12
-1.08248e-12
1.6217e-13
4.61557e-13
-4.13004e-13
1.56998e-13
-7.43766e-14
-1.47892e-13
2.95779e-13
8.33771e-14
-1.64585e-13
1.16444e-13
-5.06928e-12
-1.5832e-13
5.10458e-12
-1.804e-14
-4.9043e-12
-4.73188e-12
3.40143e-12
-4.93847e-12
-2.85154e-12
5.91769e-12
-5.35441e-12
-2.03352e-13
4.68918e-12
3.46353e-14
3.22015e-13
-1.47868e-13
-5.32448e-12
-5.79766e-12
-4.86788e-13
1.01257e-12
6.06522e-13
5.5795e-12
5.12803e-12
-1.19484e-11
-5.12881e-12
5.91536e-12
0
-6.11426e-13
1.29887e-14
7.44895e-13
4.44495e-14
-2.2761e-13
2.61846e-13
-3.12747e-14
-1.34476e-13
0
0
-5.46316e-14
-4.67738e-13
-5.65133e-12
7.05336e-13
5.85705e-12
-6.52896e-14
-3.403e-13
1.13803e-13
0
3.84919e-12
-6.94298e-12
-5.39257e-12
6.53909e-12
7.187e-12
4.68881e-12
-7.27996e-12
-5.59809e-12
-6.4293e-14
1.4804e-13
5.91907e-13
5.92635e-12
5.32237e-15
-5.33902e-12
-5.53917e-12
4.67079e-13
1.29654e-11
-6.82974e-13
-7.47311e-12
0
0
2.71149e-13
1.67085e-14
3.10854e-14
-2.3153e-13
-2.79468e-13
5.10439e-13
6.30289e-14
-5.1404e-13
0
-5.47302e-12
-6.04452e-12
-1.02176e-12
-4.26505e-13
5.13954e-13
4.96406e-13
-6.65697e-12
-2.55984e-13
6.68888e-12
0
1.47897e-13
7.24915e-12
4.15089e-13
-6.36831e-12
-1.64523e-13
-1.50251e-12
-1.67589e-13
4.45416e-13
-2.23265e-14
-1.47881e-13
-4.43663e-13
5.29256e-14
2.32221e-13
5.08608e-13
6.32249e-12
-3.7794e-13
-6.5117e-12
-7.73069e-12
-6.89917e-12
5.91466e-13
4.88037e-12
-1.86972e-13
-2.38281e-13
5.49814e-12
4.08264e-13
9.93738e-14
-5.87538e-13
1.09837e-13
-5.07119e-14
0
-6.06377e-12
-1.3194e-11
-1.08042e-13
7.03223e-12
4.05286e-13
-8.83538e-14
-2.78052e-13
-7.32504e-12
-9.99804e-15
7.2457e-12
-1.47913e-13
-7.5045e-12
-6.42552e-12
7.10132e-12
6.23939e-12
2.1828e-13
2.42957e-13
-6.36835e-13
2.57364e-13
5.91577e-13
-5.91774e-12
-5.84402e-12
1.1924e-13
-1.39011e-13
-1.14146e-13
-3.18064e-14
-6.7485e-12
3.21902e-14
6.7679e-12
0
1.47969e-13
-1.33588e-13
2.87526e-13
5.16652e-14
-6.69721e-13
-1.98209e-13
5.67355e-13
8.18525e-14
-2.8405e-13
-2.95913e-13
-6.06514e-12
-7.41043e-13
5.61536e-12
1.44463e-13
2.64437e-18
-2.40494e-13
3.55826e-13
1.54856e-13
-9.50576e-14
0
-2.95833e-13
4.35843e-14
-1.83114e-12
-2.6882e-13
2.24866e-12
-1.19647e-13
1.57946e-13
3.46454e-14
-3.26041e-14
1.47904e-13
5.32433e-12
6.93776e-14
-5.3158e-12
6.91248e-12
7.11821e-13
-6.8278e-13
-1.73562e-12
-6.36429e-12
7.75637e-12
6.65486e-12
0
-5.29715e-12
-2.29854e-13
5.59241e-12
5.30003e-13
8.92895e-14
-6.91397e-12
4.8677e-12
6.23106e-12
-5.02749e-12
0