/*--------------------------------*- C++ -*----------------------------------*\
  =========                 |
  \\      /  F ield         | OpenFOAM: The Open Source CFD Toolbox
   \\    /   O peration     | Website:  https://openfoam.org
    \\  /    A nd           | Version:  10
     \\/     M anipulation  |
\*---------------------------------------------------------------------------*/
FoamFile
{
    format      ascii;
    class       volScalarField;
    location    "0.3";
    object      gradTy;
}
// * * * * * * * * * * * * * * * * * * * * * * * * * * * * * * * * * * * * * //

dimensions      [0 -1 0 1 0 0 0];

internalField   nonuniform List<scalar> 
46825
(
-2.98172e-13
0
0
6.69223e-12
1.03996e-12
-4.75411e-12
4.46156e-13
-2.68088e-12
1.49078e-13
7.45498e-13
5.50121e-12
1.18533e-14
7.09128e-12
1.21691e-11
1.70715e-13
-4.75702e-12
7.32036e-13
3.93084e-12
4.512e-13
7.74353e-13
5.17603e-13
-1.8223e-13
6.53754e-13
-6.44331e-12
-1.43288e-12
-2.05671e-13
1.74917e-13
1.50376e-11
-2.06028e-13
-5.85833e-13
-1.12636e-11
-3.38221e-13
-7.01631e-12
-5.52112e-12
6.01169e-14
2.38519e-13
-2.78375e-14
8.00587e-12
-4.84493e-13
3.15537e-13
5.594e-12
-4.81572e-14
4.80742e-12
6.56561e-12
3.11876e-14
6.1986e-12
-6.12338e-15
-7.91593e-12
-4.09473e-14
-2.41753e-13
6.21352e-12
5.52737e-12
4.33945e-12
5.39261e-12
-6.22187e-13
1.12894e-12
6.45871e-14
-7.35197e-12
-1.08153e-13
-1.05111e-13
-5.28321e-12
-8.09804e-14
-5.04394e-12
4.6588e-12
1.22507e-13
-6.61253e-12
1.12542e-15
-5.4994e-12
1.11633e-13
2.84099e-13
-6.28292e-13
-5.02827e-12
-9.93805e-12
-5.41277e-12
4.78595e-13
-7.91219e-13
2.28808e-14
2.3467e-13
8.94208e-14
-3.83379e-13
-1.46552e-13
3.56492e-13
-1.73035e-13
-5.38013e-12
2.53838e-14
-8.19204e-14
-4.04918e-13
5.26609e-12
4.474e-14
2.02029e-14
0
-1.49096e-13
5.21357e-12
-7.43695e-13
0
0
2.9749e-13
-1.04278e-12
0
-2.98252e-13
0
1.49346e-13
0
-6.86485e-12
4.77401e-12
0
-7.4618e-13
-5.07753e-12
0
-5.07334e-12
1.89561e-14
-5.69856e-15
3.81601e-12
2.13115e-12
-1.72016e-12
-1.94457e-12
-2.61727e-13
-1.03635e-11
-1.70891e-13
-5.62399e-12
3.11807e-14
-3.81023e-13
-1.47379e-11
9.20981e-12
-8.99893e-12
-1.23817e-12
-9.43289e-13
3.95715e-12
1.08334e-13
-1.44286e-13
-2.03247e-13
1.74864e-13
4.26269e-13
-2.47032e-13
2.74277e-12
2.24128e-12
3.003e-13
-5.33984e-13
9.90445e-13
8.82941e-14
-7.61812e-14
1.05338e-13
1.36958e-11
-2.15691e-13
1.22491e-11
1.21922e-11
6.10485e-13
9.16306e-14
-1.22101e-13
3.48419e-13
-1.65343e-14
5.04603e-12
-5.94835e-14
8.67727e-14
-1.28546e-11
-1.28936e-11
1.86629e-11
3.23969e-13
-1.05148e-12
-3.70002e-14
3.37674e-13
-2.22306e-13
-3.09901e-13
-3.91471e-13
-4.28076e-13
-2.38508e-13
-1.92547e-11
1.16967e-11
-8.72769e-12
1.97463e-13
-5.24886e-12
-4.96284e-12
-1.14643e-11
-3.94791e-12
-1.15301e-11
-5.40352e-13
2.01911e-13
-1.0423e-11
1.10109e-13
4.49325e-13
3.0193e-14
5.17091e-13
-4.49059e-13
8.22704e-13
2.76723e-12
1.83237e-12
-7.8533e-13
-3.55522e-12
8.89216e-12
-6.22676e-12
5.07349e-12
4.48054e-13
-4.47996e-13
1.49228e-13
4.47528e-13
-5.37045e-12
4.47715e-13
6.12319e-12
0
-5.96917e-12
-1.5513e-11
0
-9.54562e-12
-1.19217e-12
7.60151e-12
1.19237e-12
-1.56466e-11
2.53559e-12
1.49293e-13
2.98382e-13
-4.47122e-12
4.10833e-13
-9.39791e-12
-1.10435e-11
-4.93948e-12
-3.67872e-12
-1.11275e-11
-2.33343e-15
-5.04757e-13
2.47442e-13
1.45608e-11
2.29886e-13
-1.29902e-11
1.5902e-11
1.49687e-11
5.05039e-13
1.32888e-11
-4.96368e-13
4.48129e-13
7.06941e-12
-3.51517e-12
1.02783e-13
2.58175e-11
-4.81193e-08
-6.88445e-08
-7.07208e-08
-6.05559e-08
-3.84236e-10
-4.49415e-13
-9.32855e-12
-6.9442e-12
-9.16074e-14
-2.67157e-11
-4.77828e-09
3.50375e-09
3.75067e-09
2.61448e-09
-4.81246e-11
-4.69155e-13
-7.15401e-12
-1.13779e-13
1.28963e-11
2.97437e-11
1.38981e-09
-8.35407e-10
-8.90728e-10
-6.61722e-10
1.03106e-11
1.96789e-12
9.19974e-12
1.73134e-13
-2.81372e-11
-9.61414e-12
1.87812e-08
-9.21614e-09
-9.62271e-09
-6.97117e-09
1.97834e-10
-2.08627e-12
5.5225e-12
-2.29541e-13
3.20574e-11
1.0644e-13
1.89494e-11
1.27111e-09
1.29563e-09
1.3697e-09
2.6317e-12
1.20735e-12
5.29098e-13
5.83028e-14
-1.62635e-11
-6.03293e-12
1.11884e-11
6.16515e-13
-1.06266e-11
5.81429e-13
2.11181e-12
-6.91671e-13
-5.05815e-12
-1.49171e-13
0
0
-4.32e-12
-2.38408e-12
8.49353e-12
1.48977e-12
1.49113e-13
-2.23893e-12
-4.47561e-13
-1.10118e-11
8.62003e-12
-5.9072e-13
-2.49474e-12
-2.93044e-13
-5.71396e-12
-4.40153e-12
-3.54424e-12
4.45962e-13
-1.48854e-13
-2.58731e-13
1.98077e-11
-6.17071e-12
3.0059e-09
2.85927e-09
2.83763e-09
2.88341e-09
1.79881e-09
-1.2337e-12
-6.52415e-12
1.37016e-11
-1.21338e-11
-6.86646e-10
8.87873e-06
9.14353e-06
9.20973e-06
9.07453e-06
9.35942e-06
1.86555e-09
-1.26879e-14
2.01601e-13
-1.39969e-11
-3.79892e-08
-0.46437
-0.7043
-0.707754
-0.69925
0.0678334
2.98195e-09
9.71976e-13
-8.57722e-12
-1.75048e-11
-3.75716e-10
-0.00258321
-0.00881754
-0.00918987
-0.00837441
-0.00153257
6.28532e-11
5.60449e-12
-1.03265e-12
1.38874e-11
1.1193e-09
0.000232677
0.000575902
0.000566069
0.000564004
-0.00191419
-1.02755e-11
5.61001e-12
5.65099e-12
7.3269e-12
2.44508e-09
0.013946
0.025399
0.0256982
0.0254513
-0.00247896
-3.42534e-10
-6.23943e-12
5.74607e-13
1.28206e-11
9.07932e-08
-0.00312109
0.460836
0.463093
0.456091
-0.00971663
-3.38534e-09
-1.48483e-13
-2.2894e-13
4.48543e-13
3.80825e-08
3.34274e-07
2.77447e-07
2.71647e-07
2.86854e-07
5.74415e-08
1.64885e-11
1.24257e-12
-1.48808e-13
-9.80576e-12
4.72322e-12
-3.51981e-12
1.46466e-12
1.46469e-13
-1.02668e-12
7.08564e-12
1.78326e-12
4.46502e-13
-2.97237e-13
2.81957e-12
-4.11614e-12
-1.33618e-11
-1.31589e-11
-2.16875e-12
-1.05968e-11
4.55562e-12
-1.11319e-11
0
3.33784e-12
1.77909e-13
-8.9773e-11
-2.59329e-08
-3.53829e-08
-3.27561e-08
-3.92807e-08
-1.22665e-09
-8.08358e-12
-5.47415e-12
4.49868e-13
1.47299e-11
-6.96431e-07
0.0517985
-0.432636
-0.433785
-0.431931
0.0149558
3.39203e-09
-5.82152e-12
-3.42203e-12
2.88932e-11
0.0101213
8.44932e-07
5.60872e-12
-5.40308e-12
1.01048e-10
0.000261033
2.15334e-07
1.33076e-11
3.52384e-13
-1.7483e-11
4.35089e-05
-2.33816e-08
-3.55048e-13
5.21499e-12
-2.40035e-10
-0.000434082
-6.84685e-07
-8.27533e-12
-5.48997e-12
-4.28932e-12
0.000425542
4.25685e-07
-5.67015e-12
-8.9701e-13
-4.77208e-14
2.35425e-07
9.58411e-05
0.000153211
0.000153586
0.000152136
-1.16231e-05
4.45037e-11
5.44053e-12
4.01274e-12
8.90069e-13
-7.49201e-12
3.04759e-12
1.04074e-11
1.59004e-12
2.03178e-12
5.58263e-12
4.45138e-12
1.08515e-11
6.68992e-12
7.27971e-12
-6.47425e-12
1.01589e-12
-2.02096e-12
2.74234e-12
8.70248e-13
1.76466e-12
1.33713e-12
-1.4871e-13
-1.15279e-13
6.68063e-12
-8.80833e-11
2.89769e-12
-3.88235e-08
-3.48084e-08
-4.29357e-08
-1.48477e-09
-7.21276e-13
-2.05399e-13
-7.23762e-12
1.18772e-12
-7.2159e-07
-0.364375
-0.451815
-0.453068
-0.45049
0.01562
3.88469e-09
-6.17915e-12
2.09652e-14
-3.38427e-11
0.012521
1.78909e-06
7.77577e-12
3.60593e-13
1.54893e-10
0.000337204
2.62812e-07
1.28139e-11
-5.84068e-12
1.75535e-12
6.82495e-05
-3.30186e-08
-1.29362e-11
1.43961e-13
-3.81788e-10
-0.000600473
-9.7263e-07
-1.1208e-11
-4.18466e-12
1.6466e-11
0.000486754
4.79144e-07
5.38592e-12
3.43563e-13
-5.90233e-14
2.41479e-07
9.89407e-05
0.000181798
0.000182442
0.000178406
-1.22685e-05
5.91382e-11
1.0678e-11
9.66352e-12
4.00951e-12
-9.26183e-12
5.80062e-13
5.19503e-12
6.92667e-12
0
-1.22023e-11
-6.83221e-12
5.0557e-12
1.32387e-11
1.10028e-11
-1.11913e-11
-7.26019e-13
5.77658e-13
2.74358e-12
6.82115e-12
0
7.43501e-12
-1.48796e-13
5.14108e-12
1.94269e-11
-8.84503e-11
2.41906e-09
-3.44759e-08
-3.18539e-08
-4.0378e-08
-1.51808e-09
5.48078e-12
-3.29272e-13
-9.1406e-13
1.48743e-12
-7.25442e-07
-0.365053
-0.452746
-0.45398
-0.451269
0.0156478
3.98721e-09
-1.46866e-13
1.36216e-13
-8.24393e-11
0.0125828
1.7685e-06
7.0276e-13
-6.30521e-12
1.41722e-10
0.000337752
2.47332e-07
-1.7329e-13
-5.43771e-13
-3.13469e-11
2.29558e-05
-4.36639e-08
3.75091e-14
-6.36333e-13
-3.31169e-10
-0.000646599
-1.0045e-06
8.43711e-13
4.53765e-13
-2.25838e-12
0.000488767
4.79406e-07
-4.62881e-14
3.21e-13
-2.38677e-13
2.4204e-07
9.91558e-05
0.000182499
0.000183165
0.000179025
-1.23341e-05
6.27083e-11
-6.2694e-13
-2.97522e-13
0
9.85851e-12
7.2553e-13
-4.76425e-12
1.15497e-12
1.45103e-13
6.91565e-12
-1.93248e-12
2.97578e-13
2.97648e-13
-1.16039e-11
2.79943e-12
-1.01707e-12
-1.73417e-12
-5.34641e-12
-2.75923e-12
8.54136e-12
-8.48036e-12
1.48866e-13
-7.08451e-12
-1.10669e-11
8.86868e-12
2.65018e-09
-3.46765e-08
-3.15188e-08
-4.02367e-08
-1.56181e-09
-9.07809e-12
1.82588e-13
-1.93849e-13
-2.39539e-13
-7.19879e-07
-0.36505
-0.452781
-0.454033
-0.451333
0.0156606
3.93724e-09
-2.24298e-14
1.81012e-12
-7.73928e-11
0.0125655
1.76688e-06
-7.16085e-14
-4.38337e-13
1.50129e-10
0.000337749
2.43089e-07
-1.0526e-13
5.2845e-12
-2.57675e-11
2.29644e-05
-5.61166e-08
-1.72169e-14
2.27004e-15
-3.46585e-10
-0.000646613
-1.36426e-06
-4.14312e-14
-1.05886e-13
9.5236e-12
0.0004917
2.5271e-07
3.33794e-14
-2.35481e-13
5.67801e-13
2.41773e-07
9.91932e-05
0.00018258
0.000183241
0.000179097
-1.23344e-05
5.17711e-11
1.5183e-13
1.48836e-13
-4.16395e-12
-3.97511e-12
-2.61357e-12
-5.92343e-12
3.03397e-12
3.77518e-12
3.82802e-12
2.23097e-12
-1.48862e-13
-7.14627e-12
1.19059e-12
-1.47421e-13
-8.87287e-12
-1.2302e-11
1.01302e-12
-1.22131e-11
-2.35771e-12
1.48838e-13
0
-1.34071e-11
-4.10897e-13
1.34147e-12
1.2052e-09
-3.68686e-08
-3.42576e-08
-4.24273e-08
-1.47462e-09
-9.24117e-13
5.40701e-13
5.32413e-12
-1.01896e-12
-7.18431e-07
-0.364907
-0.452482
-0.453705
-0.45102
0.0156394
3.98592e-09
3.32051e-13
6.27505e-12
-3.2883e-11
0.0125607
1.75493e-06
2.03154e-13
5.5255e-14
1.42172e-10
0.000337534
2.36854e-07
-5.71611e-12
9.1865e-15
-1.61792e-11
2.29653e-05
-5.42646e-08
-8.99312e-12
-5.44982e-12
-3.59899e-10
-0.000646246
-1.09589e-06
5.89852e-12
5.61427e-14
9.41169e-12
0.000488856
9.96803e-07
9.06881e-12
3.89911e-15
1.13698e-11
2.41847e-07
9.92931e-05
0.000182132
0.000182773
0.000178743
-1.22859e-05
4.67033e-12
-1.13537e-13
1.48893e-13
-8.92607e-13
1.28166e-11
4.36117e-13
1.01288e-12
7.2349e-12
7.26862e-13
1.62055e-12
1.04152e-11
0
0
7.44302e-13
-4.42566e-12
-5.83066e-13
-5.51641e-12
-2.90316e-13
0
-2.06479e-12
1.7866e-12
1.4896e-13
2.17966e-14
1.10269e-13
-1.04323e-12
1.46036e-08
1.16246e-08
1.48745e-08
5.06384e-09
-1.68813e-09
4.07022e-13
-2.86272e-13
5.12151e-12
1.38143e-11
-7.13661e-07
-0.359176
-0.439567
-0.440518
-0.438489
0.0151928
3.53095e-09
-5.19517e-13
5.37348e-13
-2.54767e-10
0.0107067
1.2664e-06
1.2336e-13
-5.30694e-12
-5.39967e-11
0.000263563
1.06166e-07
3.99953e-13
-7.21832e-12
1.11614e-11
2.22363e-05
-1.8894e-08
2.67199e-13
8.11357e-14
3.28199e-11
-0.000458071
-4.28173e-07
-3.81969e-13
6.4762e-12
3.69882e-12
0.000457534
3.77634e-07
-8.35404e-14
-2.04025e-13
1.10646e-12
2.38995e-07
7.82755e-05
9.39058e-05
9.37579e-05
9.61292e-05
-1.11337e-05
5.9574e-11
1.1075e-13
-1.4893e-13
2.97625e-13
3.8335e-12
-9.32461e-12
-1.88673e-12
1.16108e-12
-2.47687e-12
-1.1501e-11
-2.9768e-13
0
1.63837e-12
8.03895e-12
1.47498e-13
1.74889e-12
-2.46778e-12
1.74193e-12
-1.44273e-11
0
1.93559e-12
1.48968e-13
-5.65952e-12
1.03703e-11
5.52357e-12
1.64371e-11
1.63622e-11
2.09084e-11
4.69981e-12
-1.78438e-11
-3.01098e-12
3.01465e-13
-6.56577e-12
-1.78595e-12
-1.14e-08
-1.78477e-05
-1.8464e-05
-1.84877e-05
-1.84512e-05
-1.59397e-05
2.95475e-11
4.88693e-12
-2.24824e-14
1.58482e-11
1.42906e-07
-5.7972e-10
8.69394e-14
-3.45508e-13
-1.41815e-11
4.70065e-09
-4.28846e-11
-5.6175e-12
-5.75854e-12
1.06008e-11
-7.04255e-10
4.60411e-12
-4.0554e-13
4.70805e-13
-1.12556e-11
-6.8364e-09
1.48436e-10
1.75605e-13
5.63838e-12
-2.35656e-12
-8.0886e-07
-1.00912e-09
7.26468e-13
-3.15902e-13
8.38925e-12
1.88425e-09
-5.95898e-08
-6.24723e-08
-6.26383e-08
-6.18104e-08
1.40426e-08
7.52787e-12
5.60191e-13
1.48953e-13
-1.19063e-12
1.47452e-13
0
2.9028e-13
-8.27297e-12
-1.45704e-13
2.65419e-12
0
1.48964e-13
-4.46831e-13
0
0
-8.72492e-13
-9.40772e-12
-1.2592e-11
1.59961e-12
-5.89586e-12
3.27525e-12
1.19166e-12
1.56957e-14
2.98138e-13
-1.15118e-11
-2.92748e-13
-1.08396e-11
-1.75918e-12
-9.65476e-12
-8.48234e-12
7.16734e-12
1.01733e-12
6.48372e-13
2.97817e-13
0
6.10962e-13
-5.11721e-13
2.26124e-13
1.57356e-11
-6.32651e-12
6.02678e-13
-5.99466e-12
7.56928e-12
1.22949e-11
2.94041e-11
-1.9832e-13
-7.34547e-13
-1.71149e-13
-2.28503e-11
-1.12023e-13
-2.62492e-13
5.92706e-12
-7.29535e-12
1.02616e-11
-1.63984e-14
-1.45566e-11
-5.68159e-12
8.12002e-12
2.92563e-13
-4.91446e-13
1.41766e-11
-5.4095e-12
-2.21372e-13
-1.23568e-11
-4.47725e-11
8.77553e-13
6.41035e-12
-7.8061e-12
1.25429e-11
-5.0757e-12
2.17587e-13
6.50917e-12
1.46546e-12
7.28546e-12
-7.31297e-14
1.59683e-11
5.51574e-12
1.48945e-13
2.6787e-12
-1.47362e-13
0
1.7366e-12
2.17072e-12
1.45391e-12
-7.36742e-13
-1.25019e-11
0
0
2.05399e-11
-1.91514e-12
-1.59799e-12
6.50439e-12
-6.35991e-12
-2.90556e-12
8.84017e-13
-3.27476e-12
2.97885e-13
-4.8681e-14
1.07341e-11
7.30771e-13
2.92689e-13
7.61384e-12
-7.3271e-12
0
1.27839e-11
6.86974e-12
4.95513e-14
-6.84649e-14
5.95729e-12
-2.87751e-11
-2.74057e-11
1.3217e-12
1.06347e-11
6.47685e-12
-1.90116e-11
3.10117e-12
-2.61796e-13
-9.57478e-14
-2.92689e-13
0
4.20253e-12
-2.70807e-13
1.22089e-13
0
2.47707e-11
2.26394e-13
1.12064e-13
-6.7328e-13
0
-2.59958e-11
7.64611e-14
5.83454e-12
9.7605e-14
-5.55649e-12
-5.888e-13
1.4913e-11
-7.92531e-12
6.15462e-12
5.88468e-12
4.9962e-13
-1.48474e-11
-6.15212e-12
5.59672e-12
-4.18142e-12
0
2.03414e-12
2.1968e-13
3.96248e-12
8.09544e-12
-1.00281e-11
0
7.78295e-12
0
-8.92824e-13
-7.95441e-12
0
5.63646e-12
4.6248e-12
-4.35757e-13
4.41874e-13
-1.78574e-12
5.95761e-13
5.95711e-13
1.78598e-12
0
2.4691e-12
6.79169e-12
-1.87856e-12
-4.35738e-13
-5.30327e-12
-9.37682e-12
7.14873e-12
8.98754e-13
6.26811e-13
-4.26482e-13
-4.44955e-13
6.73655e-12
-2.93136e-13
-5.84976e-13
-7.27815e-12
-1.04547e-11
2.70419e-13
-3.00012e-13
-2.97885e-13
-2.38808e-11
-7.78686e-13
1.31494e-12
1.18199e-12
1.17784e-12
1.54112e-11
-3.01977e-13
-2.20737e-12
-5.91338e-12
-2.22964e-14
-1.16239e-12
1.36268e-13
-1.93586e-13
7.18233e-14
-1.1422e-11
-2.94955e-12
8.66408e-14
-5.34267e-12
5.77005e-12
1.11386e-11
-2.36396e-11
4.63153e-14
6.02867e-12
-3.23955e-13
5.84978e-13
1.76675e-12
1.78415e-12
-3.74431e-14
6.27828e-12
-5.88444e-13
-3.28666e-11
-1.46409e-12
-5.63196e-12
2.40921e-13
9.55822e-12
8.18602e-13
1.38077e-12
-4.39619e-13
3.15691e-12
-5.9099e-12
-7.02853e-12
-1.06678e-11
2.86843e-13
-6.40392e-12
-4.46387e-12
5.89107e-13
5.80911e-13
-2.88979e-12
-2.16734e-12
-6.68035e-12
6.92214e-12
2.52966e-12
4.46789e-13
2.82973e-12
4.46497e-13
1.47319e-13
2.32458e-12
-9.97486e-12
2.89126e-13
-6.97371e-12
1.4732e-12
4.46503e-13
-5.95751e-12
-4.88547e-12
2.80355e-12
-4.19483e-13
1.60924e-13
-9.63858e-12
4.89306e-12
7.01878e-12
-5.04497e-12
1.70878e-13
-6.47598e-12
1.96305e-12
-2.08499e-12
2.11518e-11
6.6968e-13
1.13596e-11
-1.77289e-12
-1.53111e-11
1.54119e-11
3.01956e-13
2.87666e-16
7.76088e-12
-7.5253e-13
5.81142e-13
3.79272e-13
-1.55195e-13
6.09894e-12
4.38926e-13
2.94948e-12
-1.16159e-11
-1.92757e-13
-5.28535e-13
6.18337e-13
-1.77288e-11
1.06387e-11
3.79172e-13
-7.36002e-12
-1.16978e-12
0
-3.66993e-13
5.03876e-12
-5.64581e-12
2.14763e-11
5.31162e-13
-1.15164e-11
-5.43429e-12
-5.22978e-13
-1.98565e-11
-1.33964e-11
-3.12484e-12
2.19762e-12
7.78006e-12
-1.1817e-11
8.931e-12
1.18937e-11
-5.0727e-12
5.36151e-12
-4.16639e-12
0
-8.86112e-12
-1.44546e-13
1.30092e-11
1.45267e-13
1.4729e-13
2.08327e-12
5.51061e-12
6.2555e-12
4.16763e-12
1.47385e-13
1.01831e-12
3.62058e-12
2.17233e-12
2.03656e-12
1.62121e-12
-1.48847e-13
-1.07244e-11
-4.89206e-12
-4.17315e-12
1.76103e-12
-1.05851e-12
-4.32588e-12
2.93072e-13
1.8621e-12
-3.42103e-12
-3.88149e-12
-5.5621e-12
-5.59077e-12
-2.08419e-12
-3.51466e-12
-9.18876e-13
3.17723e-13
0
5.88424e-13
-7.77484e-12
0
5.01224e-12
5.49616e-12
9.11151e-13
-2.49752e-11
-4.57179e-13
-1.44171e-13
1.36889e-13
6.76015e-13
-2.18074e-11
-3.36928e-13
-3.7199e-13
5.60969e-12
0
0
-1.88883e-13
1.63338e-13
-4.11965e-13
-1.43492e-11
-2.41232e-11
7.28611e-14
2.49446e-13
1.99483e-13
1.32345e-11
3.73414e-13
1.08109e-12
-3.25261e-13
1.86913e-13
1.05912e-12
-1.15273e-12
-4.93649e-12
1.60934e-12
1.46581e-12
3.4245e-12
3.65676e-12
-1.8035e-13
-8.39761e-14
-5.21317e-12
1.57738e-11
2.50503e-12
-1.45452e-12
-1.05707e-11
4.34413e-13
-1.59993e-12
2.505e-12
1.08638e-11
2.97897e-13
0
0
4.57318e-12
6.85244e-12
-1.88809e-12
-2.75942e-12
2.91557e-12
2.95014e-13
2.53121e-12
1.48985e-13
1.92649e-13
-9.29157e-13
4.39497e-13
9.23758e-12
-1.26484e-12
-3.85991e-12
6.49874e-13
-3.27684e-13
1.09391e-11
1.57435e-13
1.6993e-14
8.92868e-13
-1.3221e-12
1.32757e-11
2.1597e-11
2.36659e-12
-1.06968e-11
-9.31281e-12
-1.14399e-11
-4.63744e-14
8.31281e-14
-7.92964e-13
2.44453e-11
2.07419e-13
-1.56437e-13
-2.89546e-13
1.52841e-11
-6.39307e-13
-7.3847e-13
8.60454e-14
-8.22548e-15
-1.45864e-11
0
-1.05907e-11
3.1909e-14
-3.26571e-13
2.51527e-13
-2.02262e-11
1.11362e-11
-1.29257e-13
-3.88946e-14
2.81665e-13
-2.92666e-12
9.79641e-12
-5.22819e-12
9.75346e-14
5.31953e-12
6.03348e-13
-2.19266e-12
7.51704e-12
9.22826e-12
-1.13056e-11
-1.22727e-11
-9.49925e-12
-7.58062e-13
-1.4898e-13
-1.042e-12
1.4749e-13
0
-1.45213e-13
1.45212e-13
1.18061e-11
8.70095e-12
0
4.91652e-12
5.66069e-12
0
2.36072e-12
5.82853e-13
0
0
-2.18503e-12
-2.65512e-12
1.3403e-12
5.36412e-12
-4.29372e-12
2.32988e-13
1.37031e-11
-1.6976e-11
-1.38441e-11
1.61796e-11
1.33958e-11
5.01865e-14
-4.9243e-12
3.44004e-13
-5.34418e-12
0
-3.99022e-11
2.25498e-11
2.68121e-11
8.20358e-12
7.29128e-12
-1.2053e-11
-1.64828e-12
-1.07458e-11
4.81304e-12
7.80204e-13
-2.46656e-13
1.86124e-12
-5.37699e-14
2.54961e-15
-2.92675e-12
-1.14064e-11
-4.66848e-13
5.58333e-12
-4.03703e-14
5.88307e-13
1.27426e-12
-1.68772e-11
-5.92012e-12
-3.81224e-14
1.48784e-12
-2.64146e-11
2.68494e-11
-1.66428e-13
-1.6421e-13
4.52604e-13
-1.05827e-12
-9.59756e-12
5.56192e-12
4.43515e-13
-3.90184e-15
-1.64152e-11
1.38587e-12
7.88649e-12
3.10097e-12
-2.2027e-13
4.02751e-12
6.51359e-13
1.53053e-13
2.98001e-13
-1.48885e-11
1.47476e-12
2.18475e-12
0
0
2.91282e-12
-2.65434e-12
-1.23572e-11
2.98001e-13
0
2.08446e-12
2.06455e-12
2.32727e-12
2.89397e-13
-5.78735e-13
1.89003e-12
1.03179e-12
-8.93382e-13
-7.44963e-12
-4.96955e-14
2.98173e-13
2.53126e-13
-1.38386e-11
-8.78508e-13
-1.14305e-11
-1.55021e-11
1.48624e-11
-2.98717e-13
-6.05877e-12
1.97437e-13
1.04249e-11
-6.83869e-14
1.88432e-11
3.88585e-11
2.71291e-11
1.82258e-11
-1.43936e-12
3.64139e-12
7.03758e-13
-5.82803e-13
-9.16266e-12
-3.35928e-11
-8.90676e-12
5.85039e-12
-1.38942e-13
-8.78425e-13
-5.88753e-13
1.0538e-13
7.71866e-13
6.11729e-13
1.1723e-11
0
-4.73593e-13
-3.85354e-12
3.39584e-13
-1.16813e-11
-5.87926e-13
3.07396e-14
6.45228e-12
-6.49419e-12
0
3.37923e-11
-1.66862e-13
8.70004e-12
7.02057e-12
1.51542e-11
-1.06139e-11
1.52488e-12
-8.41308e-12
-1.08471e-11
9.25382e-12
1.22192e-11
2.55345e-13
6.38572e-12
1.32606e-11
5.21014e-12
1.76831e-12
5.6691e-12
1.4466e-13
8.67959e-13
2.03502e-12
-7.22032e-12
1.63745e-12
1.639e-12
-5.95845e-13
1.19112e-12
-8.10935e-12
0
-1.44589e-13
-1.44574e-13
-2.32487e-12
-2.94722e-13
-2.08454e-12
0
2.12232e-12
5.45903e-12
-8.42969e-12
1.31586e-11
-3.08738e-13
-3.55753e-13
1.43826e-13
-1.29572e-11
1.80889e-11
-9.02003e-13
7.13613e-13
-2.62115e-11
1.22764e-12
-5.93276e-12
-3.47957e-11
8.27266e-12
-7.65499e-12
2.2038e-11
-1.32861e-11
7.15404e-12
-2.35364e-12
1.45169e-11
-4.0583e-12
1.18301e-12
1.30658e-12
-1.13496e-13
-4.41794e-13
0
-6.62549e-13
-7.32419e-12
1.90577e-14
-5.26522e-14
1.06361e-11
5.39127e-13
-5.55e-12
-3.97289e-15
-6.15907e-13
0
-2.0629e-13
-1.9865e-13
-1.07924e-13
5.88444e-13
-1.37276e-12
-6.77022e-13
5.33987e-12
2.26818e-14
-1.02777e-11
-1.65334e-11
-4.65126e-12
-1.02554e-12
-1.68801e-12
-7.58611e-12
-3.66035e-13
-7.89195e-13
4.12129e-13
0
-1.93519e-12
6.92446e-12
-1.00244e-11
-2.0237e-12
-3.90276e-12
-1.45277e-12
-1.11967e-11
-7.88947e-12
0
0
-1.04255e-12
-2.65479e-12
9.01764e-12
-6.36539e-12
7.08797e-12
1.6282e-11
-2.94834e-12
5.95772e-13
5.9623e-13
3.16875e-13
1.12645e-12
1.58633e-11
8.70842e-12
-1.63397e-11
1.17327e-11
1.63635e-11
1.77791e-13
-9.75392e-12
-1.13051e-11
3.00056e-12
-2.97875e-13
-1.43012e-11
4.43846e-13
1.23865e-11
0
0
7.2007e-12
1.05696e-11
-7.03937e-12
-5.52816e-13
-1.52555e-13
1.68144e-11
-1.16094e-11
5.63154e-12
-2.68417e-12
-3.48866e-13
2.00543e-11
1.10261e-11
4.40687e-13
4.38155e-13
1.23431e-12
0
-1.01722e-11
5.38173e-14
-3.36157e-13
-1.38626e-12
0
1.08178e-11
-5.71607e-12
-9.64409e-12
0
-1.84544e-13
-2.92777e-13
-1.80241e-13
1.25399e-14
-1.48395e-13
3.56726e-12
-4.36058e-12
-4.39568e-13
-9.76257e-12
-2.31245e-11
4.53889e-12
-7.49136e-13
5.53813e-12
9.53961e-12
-4.02057e-12
-1.47386e-13
1.45353e-13
-1.44632e-13
1.59094e-12
2.03492e-12
2.21071e-12
2.53141e-12
1.49064e-13
0
-7.45265e-13
3.69188e-12
1.1662e-11
8.99518e-12
-1.4507e-13
-4.37158e-12
7.23387e-12
1.6099e-11
6.41394e-12
-7.10902e-12
1.23813e-11
4.30569e-14
8.5936e-12
2.20992e-11
1.65207e-12
-1.48101e-11
7.22582e-12
1.30858e-11
6.51689e-12
5.10219e-12
-1.34003e-11
-3.58591e-13
-1.00288e-12
-2.63382e-11
-9.18257e-13
1.72378e-11
1.58398e-12
-1.44875e-11
-5.17269e-12
1.42063e-11
-1.39762e-13
5.7976e-13
1.32971e-11
9.53344e-14
-1.09973e-13
6.42012e-13
1.17918e-12
-1.35763e-15
5.60347e-12
-6.77785e-12
-5.90146e-14
5.32143e-11
-4.70332e-14
3.70033e-13
-1.08473e-11
-2.94245e-13
3.31117e-13
-2.33408e-13
-2.11753e-13
1.45889e-13
5.88448e-13
1.87194e-12
-6.4683e-13
-3.62747e-13
-1.30268e-12
-1.29345e-11
-1.00362e-11
1.06741e-11
3.65854e-13
-1.39278e-12
-2.91481e-13
-2.41431e-12
5.34789e-13
-1.46378e-12
-6.41391e-12
1.23705e-11
4.57569e-12
1.18018e-11
0
-7.68782e-12
8.45076e-12
1.476e-12
-6.55783e-12
-1.6409e-12
0
0
-2.07518e-12
-2.34929e-12
5.85517e-13
0
1.46796e-13
-8.74403e-12
-8.95708e-12
-4.62763e-12
-1.00219e-11
-4.53019e-12
-1.15516e-12
3.60197e-12
1.8408e-13
5.38032e-13
1.50474e-11
-2.46637e-11
-2.13335e-11
6.33007e-13
-7.08279e-13
-5.96248e-13
3.47008e-11
-1.62446e-12
1.02563e-11
1.45265e-12
-1.88961e-11
3.51949e-11
1.45237e-11
5.2665e-12
4.81498e-12
-1.20002e-11
0
-1.26428e-11
-1.59538e-13
-7.11957e-14
-8.29314e-14
2.78561e-12
1.32101e-11
1.98909e-13
-1.18328e-12
1.71339e-11
-5.82629e-13
3.93394e-13
-2.50151e-14
-8.23577e-12
-6.62047e-12
4.64463e-13
-1.12201e-11
1.00068e-13
1.30964e-12
2.35677e-12
-9.29149e-13
1.17525e-11
9.77032e-14
7.87606e-12
-7.6902e-13
1.1871e-12
-4.57002e-12
-1.37332e-11
-2.56073e-12
2.83883e-12
-8.7655e-13
-1.03323e-11
-1.2868e-13
4.92618e-12
0
0
-4.10985e-12
5.85444e-13
1.46363e-13
-1.46785e-13
-6.96467e-12
-4.62751e-12
0
-5.67006e-12
-4.62897e-12
-1.3396e-12
2.96481e-13
1.48086e-13
-1.48081e-13
-2.07524e-12
-7.4418e-13
0
1.49223e-13
-1.21417e-13
3.29961e-12
-1.34028e-12
1.06698e-11
4.5789e-14
9.18879e-13
-1.10332e-14
-6.18261e-14
-1.41076e-11
8.14836e-14
6.06304e-12
-1.04574e-11
1.01088e-12
-1.94256e-11
3.57726e-11
-1.90244e-11
1.66043e-11
2.75502e-12
1.88452e-11
-1.49964e-13
6.92973e-13
1.09846e-11
2.22056e-12
2.23018e-13
-2.55312e-13
-3.98149e-13
-1.76198e-11
2.6163e-13
-1.08033e-11
8.30267e-14
-6.51675e-13
1.68691e-11
4.50328e-13
1.39976e-12
5.91889e-14
-7.14433e-12
3.80509e-13
-2.70786e-12
-1.11945e-12
-2.04351e-13
3.71207e-13
-8.89476e-13
-2.55935e-11
7.38953e-13
5.31433e-12
4.35173e-12
1.12131e-12
1.13199e-11
-4.11343e-12
7.68647e-12
-1.91948e-13
-4.18253e-13
-3.19311e-12
1.92876e-13
-2.5962e-13
-2.686e-12
-1.26899e-11
2.23201e-12
-1.4821e-12
0
-1.48084e-13
-1.77869e-12
6.84584e-12
0
-5.07478e-12
5.35958e-12
8.93367e-13
-5.9451e-13
-1.03854e-12
-2.07627e-12
4.44918e-13
2.52208e-12
-1.64966e-11
-2.97762e-13
-2.97756e-13
5.34032e-12
4.21434e-13
-3.59193e-12
-1.54854e-12
3.68823e-12
1.20253e-11
-1.12063e-11
8.73093e-13
-1.057e-11
-3.42821e-13
5.12611e-12
-2.97143e-13
-1.06227e-11
5.69618e-12
4.10393e-12
-1.63463e-11
5.49474e-12
-1.31036e-11
-3.56633e-12
4.20603e-13
5.38942e-12
0
2.35307e-11
-3.49434e-12
-1.0369e-12
-6.36683e-12
1.03474e-12
1.81123e-12
2.45105e-11
1.84911e-13
-5.53988e-12
1.18708e-12
1.49711e-11
1.25839e-12
1.27595e-12
-1.41945e-11
9.21935e-13
2.55168e-12
-9.77988e-12
1.06083e-13
-5.273e-12
-1.18756e-12
1.17926e-12
1.51716e-11
-1.04115e-12
2.79289e-12
-1.87869e-12
-2.28034e-11
-7.35654e-13
-2.51892e-13
1.54174e-13
-2.96549e-13
1.11687e-12
-1.55572e-11
1.34657e-12
9.27534e-12
4.13652e-13
2.31164e-11
-1.70537e-11
-4.06568e-13
9.65914e-12
-1.34249e-12
-1.48341e-11
7.64309e-12
-1.00569e-11
1.1074e-12
-7.8943e-13
4.69571e-11
1.71874e-11
8.86209e-14
-4.28661e-13
1.01224e-11
-2.36783e-13
7.855e-13
1.42665e-11
-1.72429e-11
1.12379e-11
-1.44639e-11
7.56001e-15
-6.77973e-13
-9.52779e-12
-3.27493e-12
2.52575e-12
1.48327e-13
8.15582e-12
-1.48296e-13
7.26899e-12
5.94417e-13
0
-5.95625e-13
5.93864e-13
5.7869e-12
-1.48185e-13
-5.77317e-12
-8.58334e-12
0
-1.49504e-11
-5.48263e-12
1.3354e-12
-5.1963e-12
4.8669e-13
-5.83849e-14
2.38346e-12
-5.53213e-13
3.28327e-12
-1.88145e-12
-3.90945e-12
-2.88057e-12
-5.99805e-12
-4.40502e-14
3.39608e-14
-5.76778e-12
8.54448e-12
7.76006e-12
1.2019e-11
9.93094e-13
9.59577e-12
-3.6288e-13
-9.06293e-12
4.95691e-12
1.51131e-13
4.87165e-12
-2.64313e-12
5.86976e-13
-5.79158e-13
-1.33694e-12
7.981e-13
1.5297e-13
3.02401e-12
1.39477e-14
-6.28771e-14
5.39312e-12
-7.34971e-12
-2.95359e-13
8.00143e-12
-1.12235e-12
-4.70852e-12
1.89586e-13
-5.1722e-12
-5.69982e-12
6.11228e-12
9.05976e-13
1.17642e-12
0
1.5471e-12
1.33362e-13
2.52612e-13
1.33446e-11
-9.22758e-12
1.39437e-13
-1.77988e-13
-4.23183e-13
-1.05786e-11
5.89302e-13
-7.04531e-12
-2.52145e-12
-3.68614e-14
-1.34156e-11
5.08935e-12
4.49142e-13
-5.98893e-12
-6.05791e-12
1.07999e-11
-1.02569e-11
-1.21916e-11
3.82692e-12
-4.79746e-13
2.04937e-12
8.18191e-12
-1.06004e-13
1.22364e-13
-4.79428e-12
-1.30913e-11
1.37761e-12
9.37007e-12
1.51256e-12
1.84409e-13
1.51416e-12
-1.51312e-13
5.07599e-12
-1.48459e-13
2.96745e-13
4.29827e-12
0
6.51026e-12
4.43896e-13
-7.4002e-13
-6.07469e-12
0
0
-4.29791e-12
6.96209e-12
1.03614e-12
-1.47941e-13
0
-5.02927e-12
-1.18353e-12
4.58852e-12
0
0
-4.94392e-12
8.90263e-13
-5.61734e-12
-3.49488e-13
8.30587e-14
-4.93121e-12
-6.34885e-15
1.18728e-11
6.64933e-12
2.35116e-12
4.84522e-12
1.52938e-12
-4.59952e-13
-4.97854e-13
-3.43486e-12
1.85765e-13
1.03763e-12
6.05136e-12
1.19222e-13
1.64093e-13
5.48808e-12
-5.59555e-13
1.4321e-11
1.09379e-13
-9.6874e-14
-7.8216e-14
-1.79498e-13
-2.46513e-13
-7.73432e-12
-4.96096e-12
1.19052e-13
-1.51303e-11
-1.4046e-13
1.39747e-13
3.78008e-12
5.64975e-15
7.60959e-14
-7.10989e-12
9.89314e-14
-4.09767e-13
7.71694e-12
4.66266e-13
-8.66122e-12
5.45803e-12
-1.44143e-13
-1.82265e-13
6.65012e-13
-1.22542e-11
8.79805e-13
2.94474e-12
2.55858e-13
6.62772e-12
1.63967e-13
4.94918e-12
-5.23573e-13
-6.07936e-12
6.94523e-14
1.22668e-12
1.44242e-13
-4.90164e-12
-7.45811e-12
-3.9449e-13
2.44482e-13
-5.12996e-12
1.0301e-13
2.42042e-13
5.95254e-12
5.38337e-12
-5.01998e-13
3.19877e-13
-6.38223e-12
-7.10748e-12
-3.67956e-13
-5.25794e-12
9.4057e-14
5.49266e-12
-9.44732e-14
-1.1453e-13
-5.09729e-14
4.81496e-12
-5.63146e-12
-7.10963e-12
0
2.95826e-13
-2.95764e-13
-4.43633e-13
-6.35982e-12
1.47991e-13
1.48111e-13
1.482e-13
8.58725e-12
7.99271e-12
-4.43868e-13
6.65618e-12
-5.17659e-12
-5.916e-13
0
2.95897e-13
-5.32828e-12
4.8857e-12
4.12877e-13
-3.94854e-13
9.13785e-14
6.48681e-12
-5.28885e-12
-9.13914e-14
-2.54453e-14
-1.18156e-13
-5.49678e-12
5.54568e-12
-8.45812e-12
-2.89483e-12
1.06878e-12
-4.17138e-14
-3.72776e-13
4.45382e-13
4.89255e-14
-5.97641e-13
-6.42324e-13
-4.94494e-12
-6.0524e-13
1.19541e-13
2.02069e-14
-4.26668e-14
8.56719e-14
-4.92414e-12
-2.12926e-14
1.44624e-13
7.71734e-14
-1.05162e-11
-5.97316e-13
-2.16754e-12
-6.2142e-12
3.86099e-14
6.61987e-13
-5.15224e-12
-7.51756e-14
-4.88163e-13
-1.33721e-13
-1.54862e-13
5.19439e-12
-1.37948e-13
-5.01605e-13
-3.64691e-13
2.76372e-13
5.00566e-12
6.29944e-12
5.13263e-12
-5.88225e-12
4.89161e-12
6.28693e-13
-2.80685e-12
4.81354e-12
-1.03502e-13
-5.51712e-14
5.26408e-12
-1.37102e-14
8.04824e-13
-3.66248e-15
3.20039e-13
-5.34324e-12
2.53126e-13
5.40729e-13
4.79786e-14
-5.9405e-12
5.23838e-14
-5.69865e-12
-5.42447e-12
5.67704e-12
-1.76623e-13
1.70507e-12
5.22893e-12
-4.84446e-12
3.57253e-15
8.9133e-13
7.30541e-12
5.81e-12
-2.13163e-13
-2.82533e-14
-2.26493e-13
1.33241e-12
5.32802e-12
-5.32562e-12
5.9153e-13
6.50589e-12
7.24505e-12
5.17561e-12
1.47923e-13
-1.47988e-13
0
4.4393e-13
0
-5.3253e-12
2.95805e-13
0
5.47202e-12
-7.39494e-13
-7.10006e-12
1.47947e-13
0
6.50985e-12
5.55231e-13
-5.21877e-12
-6.69148e-13
-3.32655e-13
5.69062e-12
-3.35816e-13
-1.40053e-11
-4.45224e-14
1.76646e-13
1.33467e-13
1.96429e-13
7.05426e-12
2.35238e-13
9.41798e-13
-4.73679e-14
-3.42935e-15
-5.0334e-13
5.61772e-14
2.54634e-14
-6.18398e-12
-1.01444e-12
-1.65848e-13
5.82591e-13
6.27071e-13
6.2148e-12
-1.42534e-13
6.3236e-12
-7.70639e-12
-7.1945e-12
-5.264e-12
2.44375e-13
-1.25433e-11
-3.18823e-13
-9.35203e-13
3.44326e-13
4.30849e-13
-4.55448e-14
-2.405e-13
-1.26506e-13
6.33845e-12
3.67536e-13
-7.26425e-12
7.04214e-16
-3.42932e-13
-6.00747e-12
-9.93853e-14
1.72498e-13
4.41627e-13
7.00611e-12
5.07824e-12
-1.17005e-13
-2.19874e-12
-6.43802e-12
-3.97703e-13
-6.60974e-13
-1.03922e-13
2.13981e-13
-4.13349e-13
1.09383e-13
-2.55991e-13
-1.83464e-13
7.00939e-12
3.65456e-13
-5.24107e-14
-1.85091e-13
5.03814e-14
-6.79915e-12
7.26979e-12
0
-3.36697e-14
1.14084e-13
7.57562e-12
6.4149e-12
1.86409e-13
1.34444e-14
6.53102e-14
-2.17218e-13
5.91572e-13
-1.87865e-13
-5.91878e-12
-1.4794e-13
1.47902e-13
1.47874e-13
1.4786e-13
-4.43571e-13
2.95733e-13
6.95086e-12
0
-2.95913e-13
-5.91721e-13
5.32498e-12
0
-2.07047e-12
0
0
1.47884e-13
-1.47893e-13
-1.47911e-13
0
-5.91666e-13
1.0945e-11
1.47891e-13
0
6.95054e-12
5.91526e-13
6.65451e-12
-1.3309e-12
1.47892e-13
6.65568e-12
0
5.9156e-13
-5.61958e-12
2.07045e-12
2.95796e-13
7.39469e-13
1.47879e-13
-6.21053e-12
4.87987e-12
0
0
-5.32377e-12
0
0
-7.69221e-12
-4.43762e-13
-6.65519e-12
8.87206e-13
2.95722e-13
-6.65403e-12
0
-2.95763e-13
5.62005e-12
-3.84607e-12
-1.47952e-13
-4.43834e-13
1.77489e-12
1.19775e-11
-5.02706e-12
0
2.95759e-13
-7.39385e-13
-7.54247e-12
-1.4792e-12
-6.06568e-12
1.47937e-13
6.95129e-12
0
-1.47849e-13
1.47854e-13
1.47881e-13
-5.61916e-12
-5.61927e-12
1.03524e-12
0
-1.47898e-13
-1.47871e-12
-6.3575e-12
0
0
0
-1.47878e-12
7.68904e-12
1.47864e-12
7.39332e-12
-1.47861e-13
-1.47846e-13
0
8.13185e-12
6.06264e-12
-4.43717e-13
6.06344e-12