/*--------------------------------*- C++ -*----------------------------------*\
  =========                 |
  \\      /  F ield         | OpenFOAM: The Open Source CFD Toolbox
   \\    /   O peration     | Website:  https://openfoam.org
    \\  /    A nd           | Version:  10
     \\/     M anipulation  |
\*---------------------------------------------------------------------------*/
FoamFile
{
    format      ascii;
    class       volScalarField;
    location    "0.3";
    object      gradTz;
}
// * * * * * * * * * * * * * * * * * * * * * * * * * * * * * * * * * * * * * //

dimensions      [0 -1 0 1 0 0 0];

internalField   nonuniform List<scalar> 
46825
(
1.49086e-13
0
-1.48932e-13
8.92297e-12
4.45697e-13
-6.38834e-12
1.48719e-12
1.32554e-11
2.98155e-13
7.60408e-12
5.96213e-13
-1.4893e-13
1.48581e-13
-9.17743e-12
5.61054e-12
1.47648e-13
-4.44079e-13
9.50946e-12
-2.97867e-13
-7.45312e-13
-7.74304e-12
0
-1.62486e-11
-9.95078e-12
-2.90893e-13
-5.81788e-13
-1.46336e-13
-5.90871e-12
-7.42861e-13
-5.95649e-13
-4.46072e-13
0
-3.51194e-12
1.16614e-11
2.42249e-12
1.70999e-12
-4.31903e-13
-1.36087e-11
0
-5.94772e-13
7.42752e-12
2.95287e-13
-6.10914e-12
-2.8502e-13
2.53237e-12
-2.53236e-12
-1.42508e-13
-1.29454e-11
1.62405e-12
-1.18838e-12
-7.27983e-12
1.4767e-13
-1.38217e-11
0
2.67343e-12
-1.0975e-11
7.26939e-12
0
1.47664e-13
2.97125e-13
-1.04116e-12
-1.48079e-13
-8.78599e-12
-9.65186e-12
3.9915e-12
-1.85318e-12
4.32159e-12
2.78216e-12
4.44217e-13
-8.92385e-13
-4.46889e-13
0
-2.95663e-13
-1.01042e-11
-5.2384e-12
-2.91023e-13
-2.92875e-13
9.75695e-12
-1.17432e-11
2.97917e-13
-6.85861e-12
-1.48984e-13
7.13509e-12
-1.48082e-13
-1.47687e-12
7.38438e-12
4.44253e-13
-8.91907e-12
0
5.96405e-13
0
2.98193e-13
1.48959e-13
7.43695e-13
-1.04007e-12
1.48584e-13
5.94981e-13
1.19174e-12
0
-7.75455e-12
1.01454e-11
-1.49346e-13
9.10949e-12
9.84956e-12
-2.98375e-13
-6.41502e-12
1.19389e-11
5.82422e-12
-1.49359e-13
0
-9.55622e-12
1.12218e-13
-1.60754e-15
7.8399e-13
1.69036e-12
1.71106e-12
1.44593e-14
1.14614e-11
-3.74075e-13
-7.46658e-13
-2.98577e-12
6.6045e-14
1.78783e-12
-1.03799e-11
2.95805e-13
-1.36014e-11
2.95934e-13
5.94153e-12
-4.63638e-13
-2.98595e-13
9.25001e-12
2.97787e-12
0
3.0449e-11
2.90624e-13
1.16147e-12
-1.456e-12
-6.48146e-12
-2.18742e-12
9.39938e-12
7.90537e-12
5.12211e-12
1.86339e-11
-8.71846e-13
2.87475e-13
-2.87087e-13
1.44174e-12
-1.93524e-11
-4.34658e-13
-1.29766e-11
-7.60781e-12
5.60758e-12
-4.43527e-12
1.45188e-11
-5.16762e-12
-1.0607e-11
2.88005e-13
0
7.48602e-13
-1.49166e-13
-8.95413e-13
-1.57385e-11
-7.99268e-12
-8.73981e-12
5.76776e-13
-2.01606e-12
-4.04887e-12
1.32156e-11
2.67856e-12
-4.47681e-13
-4.4803e-13
1.1199e-12
-5.64739e-12
-8.25514e-12
8.79877e-13
-1.67051e-11
-1.52718e-11
1.03582e-11
6.40701e-12
6.72019e-12
1.4936e-13
-1.12246e-13
2.93569e-12
3.18944e-12
5.43761e-13
-3.01383e-12
-4.30792e-12
-4.15896e-13
2.65658e-12
8.96163e-13
0
-4.48054e-13
1.49332e-13
8.9537e-13
1.49176e-13
8.05567e-12
-1.49238e-13
4.48038e-13
0
1.49229e-13
5.96653e-13
-8.2614e-12
9.64598e-13
-7.8731e-14
-1.9388e-13
6.80825e-12
6.65913e-12
-7.10934e-12
1.08948e-12
-6.86279e-12
-1.45377e-11
0
2.98791e-13
9.57035e-12
2.69778e-12
-4.49882e-12
-1.94599e-11
-1.94141e-11
0
-2.82036e-13
2.35694e-13
-2.98736e-13
-8.77879e-12
-1.21086e-11
6.08833e-13
1.00627e-11
-7.89169e-12
3.02548e-13
-3.00317e-13
-8.60855e-12
3.87382e-12
-1.28572e-11
6.65952e-12
1.05576e-06
9.67059e-07
9.83699e-07
9.03398e-07
1.47483e-08
1.20471e-12
-3.17144e-14
-9.77858e-14
-2.997e-13
-2.28279e-11
9.66645e-07
-4.9132e-07
-5.06115e-07
-3.98379e-07
1.21161e-08
-2.1177e-12
-7.19083e-12
-7.44981e-12
1.43935e-11
1.82903e-12
9.83013e-07
-5.05764e-07
-5.2196e-07
-4.07414e-07
1.19916e-08
1.48393e-11
7.24343e-12
-7.9438e-14
-3.59205e-12
-7.58886e-12
9.26719e-07
-3.95222e-07
-4.07186e-07
-3.09791e-07
1.36057e-08
-5.73636e-12
1.05618e-13
2.43693e-13
1.49325e-12
-3.02761e-13
2.53095e-09
1.20602e-08
1.19662e-08
1.363e-08
1.13487e-10
1.11246e-11
-1.75526e-12
6.67752e-12
2.98392e-13
1.89224e-11
1.80747e-12
-2.32923e-11
-9.9931e-12
1.08691e-11
1.11252e-11
2.99101e-13
-4.0973e-13
-4.47513e-13
-8.14071e-12
-1.16188e-13
-6.93912e-14
7.4357e-13
2.46942e-13
-3.91502e-13
6.39994e-12
1.82679e-13
8.20528e-12
-1.05654e-11
-9.36866e-14
-7.11287e-13
9.39369e-12
1.05982e-11
2.02598e-13
-2.85211e-12
1.25035e-13
8.29893e-12
1.48854e-13
9.49015e-12
2.97015e-13
-1.94244e-13
-4.18413e-11
-7.84208e-11
-6.66485e-11
-3.54418e-11
1.2953e-11
1.51384e-11
-2.13993e-13
-1.17896e-13
-2.28837e-12
5.13439e-10
-1.02313e-06
-1.07876e-06
-1.02713e-06
-1.0782e-06
-1.21417e-06
1.94625e-10
-7.48555e-12
-9.28727e-12
-4.62533e-11
-1.35913e-06
-225.244
-293.883
-294.518
-292.985
-0.0654147
2.97516e-09
-1.69189e-11
3.08974e-14
-7.33819e-11
-1.07003e-06
-293.878
-407.186
-408.694
-404.88
-0.337702
-7.66925e-09
1.20189e-11
-7.44812e-12
-7.49283e-11
-1.04835e-06
-294.494
-408.678
-410.277
-406.29
-0.339242
-6.32317e-09
1.0469e-11
3.92776e-13
-6.19964e-11
-1.08008e-06
-291.968
-404.733
-406.279
-402.321
-0.336676
-1.03843e-08
-4.15943e-13
-2.44633e-13
-1.58892e-11
-1.21136e-06
-0.0358009
-0.336705
-0.339177
-0.33664
-0.0380619
2.72083e-10
-7.48932e-12
-6.85325e-12
2.96711e-13
1.84413e-10
4.80705e-09
-7.18066e-09
-6.39133e-09
-9.96305e-09
3.24484e-10
1.87378e-11
-9.48499e-12
-1.33927e-12
5.49093e-13
-7.39618e-12
2.01083e-13
6.48629e-12
-7.99399e-12
6.61152e-13
3.46339e-12
-1.82926e-13
6.10219e-12
0
1.31559e-12
7.77763e-12
4.0848e-14
-1.19608e-13
-7.02358e-12
-6.55309e-12
1.65468e-13
-1.1316e-12
2.97342e-13
2.31537e-11
2.96347e-13
1.5963e-11
3.32577e-10
6.15225e-10
5.97669e-10
6.18238e-10
7.02521e-13
-1.54084e-11
6.01395e-14
2.59865e-13
2.38339e-12
3.12984e-09
-0.000771855
0.00841604
0.0085183
0.00829289
-0.000105238
8.00413e-10
9.0048e-12
-4.08696e-12
6.05558e-11
0.00415365
7.67462e-07
-8.48815e-12
2.88697e-13
6.26982e-10
0.00842033
2.57344e-06
1.7618e-11
7.48957e-12
5.81344e-10
0.00848943
2.62474e-06
1.38885e-12
-6.78499e-12
6.34592e-10
0.00829184
2.44167e-06
-7.28049e-12
-2.38208e-14
-2.29545e-12
-9.81054e-05
-8.97664e-08
-5.92146e-12
-1.3022e-11
-5.92316e-13
9.03127e-10
1.33337e-06
2.59535e-06
2.6364e-06
2.43803e-06
-8.93797e-08
-1.87717e-11
2.56285e-13
4.4586e-13
1.41621e-11
-9.05887e-12
-3.67202e-13
6.33244e-13
8.56143e-13
1.84385e-13
-1.62607e-11
-6.95687e-12
7.13522e-12
-6.98725e-12
-7.46048e-12
2.56807e-12
-1.00112e-11
-1.00873e-11
-2.67314e-13
-1.80504e-11
-2.64599e-13
-1.5177e-11
0
1.11301e-11
-2.97272e-13
-1.55209e-11
0
1.56066e-10
1.38967e-10
1.54133e-10
1.52635e-12
1.60757e-11
-6.03794e-14
-4.38611e-12
-1.237e-13
-2.18262e-09
0.000199239
0.000270022
0.000270745
0.000269372
-6.36032e-06
1.38387e-10
6.28976e-12
8.95878e-12
1.37162e-11
0.000122776
3.26951e-07
7.53129e-12
-4.8624e-15
1.38835e-10
0.000270175
2.18826e-07
1.85337e-13
7.89664e-12
1.45078e-10
0.000270741
2.02411e-07
-1.0455e-11
-1.21944e-12
1.46545e-10
0.000269347
1.68799e-07
7.193e-13
-4.48418e-13
2.30272e-11
-3.02243e-06
-5.63418e-09
2.49569e-12
6.80381e-12
-2.97733e-13
1.04366e-10
8.14943e-08
1.9193e-07
2.02459e-07
1.6878e-07
-6.91598e-09
-1.50205e-11
8.66164e-12
8.92018e-13
-4.45175e-13
1.70082e-11
-6.66306e-14
-1.62949e-11
-7.95443e-13
-2.02616e-13
3.20447e-12
-7.00206e-14
-6.39397e-12
1.48749e-13
1.84975e-11
-8.78237e-12
-2.89202e-13
4.03063e-13
-1.9178e-13
-5.49059e-13
-8.6162e-12
8.24103e-12
-1.48796e-13
-8.71168e-12
1.42935e-11
-1.10722e-13
-2.04875e-12
3.62784e-11
3.42599e-11
4.4704e-11
1.75535e-12
-1.49176e-11
3.70087e-13
-9.35513e-12
-3.70768e-13
-3.54328e-09
4.86653e-05
9.06843e-05
6.06071e-05
9.04108e-05
-2.34745e-06
4.22284e-11
4.20766e-13
9.21404e-13
-2.13598e-11
4.80257e-05
1.89853e-08
9.00855e-12
-7.01545e-12
3.2178e-11
9.07153e-05
3.5236e-08
-1.03715e-11
1.07598e-13
2.48867e-11
9.08529e-05
2.5542e-08
-8.73835e-12
7.83819e-12
4.2655e-11
9.03765e-05
-9.48227e-09
6.56576e-12
1.79164e-13
-6.18064e-12
-1.03283e-06
1.7936e-09
5.99993e-12
1.30749e-11
5.96655e-13
-3.51557e-12
1.17998e-08
2.18956e-08
2.83511e-08
2.29407e-08
-1.22116e-09
1.47556e-11
-4.13604e-13
1.48761e-13
-1.41821e-11
5.05912e-12
9.28168e-14
-1.21583e-11
-4.21273e-13
-5.4768e-13
9.2405e-12
7.43829e-12
-7.43944e-12
1.66683e-11
7.85263e-12
-1.12862e-11
8.98494e-12
8.12608e-12
2.65853e-13
1.97268e-11
6.56454e-13
6.86419e-12
-5.95465e-13
-1.04581e-11
-1.99654e-11
1.6373e-12
0
9.95355e-12
-2.93021e-13
3.5086e-12
-1.40564e-13
-1.49282e-12
-7.95514e-13
-7.73354e-12
3.29039e-13
9.03881e-10
2.40327e-05
9.08003e-05
3.04583e-05
6.04164e-05
-2.46602e-06
1.33616e-11
4.12795e-13
-1.75622e-12
6.4414e-12
5.90838e-07
-2.87549e-09
-3.35355e-13
-8.38152e-14
1.93194e-11
9.07771e-05
-9.07352e-09
-7.22429e-14
6.50627e-12
2.1973e-11
3.04606e-05
-1.00694e-08
-7.84709e-12
5.80067e-13
9.06256e-12
9.04835e-05
-2.11659e-07
-1.18461e-11
1.09627e-13
-1.81353e-11
-1.46153e-08
1.57234e-08
-1.04587e-12
5.16109e-14
-2.98647e-13
9.74504e-12
-7.38832e-09
3.52646e-09
-7.28063e-09
-2.92646e-09
-4.15174e-10
0
1.79052e-13
2.97672e-13
2.55169e-14
-2.56618e-12
-1.93125e-13
1.0172e-11
4.32013e-13
-4.28862e-13
-6.80398e-12
7.5224e-12
-1.48862e-13
-4.46642e-13
-1.1351e-11
3.67112e-14
7.91206e-14
7.12002e-12
-1.19561e-13
5.26059e-13
8.86136e-12
-8.40301e-12
1.48922e-13
-4.38883e-13
5.66327e-12
-1.73811e-12
8.78593e-13
-6.82141e-11
-5.03998e-11
-6.43264e-11
-8.48804e-13
2.09035e-12
2.49043e-13
9.23168e-12
-1.48311e-11
4.9274e-10
-4.92926e-05
-2.93364e-05
-5.96342e-05
7.70918e-07
-2.5413e-06
-5.82726e-11
-8.54514e-13
6.33298e-12
1.37608e-11
-5.02257e-05
-7.61349e-08
-7.63781e-14
7.37308e-12
-6.41058e-11
-2.93356e-05
-1.87451e-07
-5.58476e-13
3.22234e-14
-7.85185e-11
-2.9425e-05
-1.91863e-07
8.14357e-13
-9.16461e-12
-6.60724e-11
-2.92324e-05
-9.40952e-09
-6.51951e-14
1.40123e-13
6.37466e-13
8.80606e-07
-4.42242e-08
-6.64887e-14
-5.5028e-14
-1.40374e-11
-7.13249e-11
-7.17323e-08
-1.92178e-07
-1.91426e-07
-1.64099e-07
4.46987e-09
-3.03224e-13
-6.53592e-13
-1.48893e-13
7.45374e-12
3.48569e-12
-1.02742e-11
1.06604e-11
1.53883e-12
8.18004e-13
-1.14806e-11
-5.58031e-13
1.48915e-13
-2.23383e-12
-1.07139e-11
-7.46613e-14
-8.62627e-12
-7.9976e-12
2.83512e-14
8.38822e-13
-5.3868e-13
-2.81918e-13
5.95841e-13
9.37923e-12
3.27886e-12
-1.23786e-12
7.03777e-11
1.07124e-10
1.31895e-10
5.07008e-11
-3.23678e-12
-1.4929e-12
1.07997e-12
8.04036e-12
1.41844e-11
3.2077e-10
-0.00276221
-0.00638286
-0.00648275
-0.00634309
4.77282e-05
-1.51232e-10
3.83518e-13
-6.27342e-12
5.45302e-11
-0.00280987
-8.65122e-07
7.37943e-12
-9.12845e-14
1.03885e-10
-0.00638278
-1.34987e-06
-1.87946e-13
-7.23307e-12
1.45098e-10
-0.00648259
-1.376e-06
7.46157e-12
-7.47231e-12
4.54204e-11
-0.00628257
-1.2639e-06
1.17384e-11
3.85797e-13
4.30459e-13
5.13752e-05
4.29095e-08
2.33594e-13
-2.8602e-14
1.43356e-11
-1.65627e-10
-8.65087e-07
-1.35399e-06
-1.37298e-06
-1.28479e-06
4.47161e-08
-3.01161e-13
9.20532e-13
0
2.60776e-13
-7.5097e-12
5.48498e-13
3.41006e-13
-6.4928e-12
-1.69389e-13
-7.15951e-13
-7.59016e-12
7.44784e-13
-2.97885e-13
6.44761e-13
-2.85292e-14
-4.43058e-13
4.08485e-12
7.64414e-12
1.36622e-13
7.96883e-12
-7.60355e-12
-1.63864e-12
-1.08595e-12
-2.027e-11
-1.66579e-13
1.35019e-11
-1.55937e-11
1.35463e-11
-1.38057e-11
2.0831e-13
1.79157e-12
-5.33977e-13
-2.40612e-13
-1.95602e-11
1.59633e-10
4.16275e-06
3.04703e-06
3.06998e-06
3.09251e-06
3.66422e-06
6.98693e-11
4.67653e-13
-7.05361e-12
-1.52612e-11
4.0869e-06
-3.53843e-09
-7.94151e-12
9.18307e-12
0
3.04826e-06
-4.27023e-09
1.84973e-13
3.95853e-13
0
3.08673e-06
-4.17102e-09
-7.04415e-13
8.67331e-12
-2.9371e-13
3.12519e-06
-4.51801e-09
-8.27537e-12
1.05779e-11
-1.169e-13
3.71743e-06
2.1108e-09
-7.40716e-12
2.13937e-13
-1.19412e-12
5.80854e-11
-3.54082e-09
-4.29867e-09
-4.19707e-09
-4.53842e-09
2.10848e-09
1.41524e-11
1.65746e-13
2.97907e-13
9.8997e-13
2.02706e-13
9.91863e-12
7.94407e-13
-1.53297e-12
-1.07001e-12
1.18467e-11
-9.7844e-12
1.48964e-13
-7.29824e-12
-6.44455e-12
1.911e-13
-8.05891e-14
-7.18038e-12
6.71246e-12
-1.10152e-11
3.34467e-13
1.54472e-14
0
-9.52887e-12
1.69939e-11
1.44116e-12
-1.93214e-11
1.55269e-11
-1.43666e-11
1.40433e-11
2.66227e-13
-2.00088e-11
-6.73437e-14
-3.96239e-14
1.9254e-11
-1.22397e-12
-5.79988e-13
1.17621e-12
-8.24601e-12
2.81862e-11
-2.79706e-13
2.33538e-12
-6.7454e-14
-5.92011e-13
1.52223e-11
-3.36433e-11
1.55414e-12
-7.15988e-12
-4.07733e-14
0
-2.3523e-11
-4.11388e-13
-5.14885e-13
-1.38156e-13
5.86377e-13
-3.12169e-11
-1.00036e-13
1.45675e-13
6.90711e-12
1.55059e-11
2.34885e-12
1.4158e-12
7.56097e-12
-2.92458e-13
5.36201e-14
7.50758e-13
-9.05959e-12
-1.03356e-11
7.41291e-12
5.97279e-13
-6.78015e-12
9.95121e-13
2.17483e-11
2.11052e-11
1.82955e-11
1.43476e-11
-1.3558e-11
-1.4352e-12
7.14937e-12
8.37095e-14
-7.84839e-12
2.55742e-13
7.222e-12
1.33705e-11
5.91008e-14
1.777e-12
4.15138e-13
-1.04268e-12
-5.95738e-13
-7.50739e-14
-1.77674e-14
-4.41347e-13
-1.83306e-11
-7.71599e-12
7.87962e-13
-9.30204e-13
1.72336e-11
1.19154e-12
7.91094e-13
1.55048e-11
-2.45384e-13
-1.14149e-11
2.9284e-13
8.79252e-13
-2.92454e-13
-1.54443e-13
1.82197e-11
9.9329e-12
2.26718e-13
1.65731e-13
-5.63256e-11
7.45136e-14
-2.40919e-12
5.90816e-13
-1.17761e-12
1.41473e-12
1.65027e-11
1.05186e-13
-4.41149e-14
-1.17076e-12
7.75411e-11
-1.58925e-11
1.4565e-11
-1.78646e-11
2.92826e-13
-2.56599e-11
-2.89047e-13
2.2681e-13
-5.86474e-14
-2.93069e-13
-1.77244e-12
1.89376e-11
1.89131e-14
1.97905e-13
-1.54997e-11
-1.1776e-12
1.30462e-12
1.61212e-11
-1.11412e-11
-3.16143e-13
-2.05587e-12
1.49782e-11
7.34284e-12
8.35909e-12
2.38939e-12
-3.47057e-12
-1.33227e-12
3.0163e-13
-2.10392e-13
-3.1179e-11
-1.36857e-11
-3.01411e-13
-2.34658e-13
-1.48933e-13
-9.08827e-13
9.94373e-14
3.83381e-13
-8.95658e-13
-5.74219e-13
-8.74521e-12
8.68573e-12
1.25174e-11
5.95761e-13
-4.02105e-12
1.64586e-11
3.86963e-13
6.4153e-13
1.6833e-11
-6.71157e-12
6.73664e-12
3.22866e-13
3.83724e-14
8.78698e-12
2.71297e-13
-1.58027e-11
-2.9957e-13
1.6978e-11
-1.3766e-11
5.86273e-13
-2.92488e-13
7.9387e-13
1.19482e-12
-2.18444e-13
-1.04944e-11
-9.46017e-13
6.12329e-13
-4.45416e-13
-1.15093e-13
0
-4.71135e-12
1.12524e-13
-5.44987e-12
-2.5442e-13
3.3033e-12
5.85425e-13
2.15574e-12
2.87493e-11
9.20419e-14
-6.85779e-14
5.85745e-13
-1.33571e-12
8.58627e-14
-3.90857e-14
1.07988e-11
-5.86243e-13
5.9099e-13
-1.90944e-11
-1.02726e-13
3.14381e-13
0
4.06353e-11
-1.46223e-12
-7.87964e-12
2.77376e-13
-3.65263e-13
2.94472e-13
-1.49281e-11
1.72802e-11
-1.4948e-11
-2.38955e-12
-1.30939e-12
2.78908e-13
2.90861e-13
4.83302e-13
1.31606e-11
1.32423e-11
0
-6.25488e-12
-7.89321e-12
-8.73667e-14
8.21118e-12
-9.2733e-12
-7.18808e-12
3.96809e-12
1.64725e-13
-1.26803e-12
9.18762e-14
0
2.97866e-13
-2.74444e-13
-6.31573e-14
4.25643e-13
6.71936e-12
-9.75517e-14
-2.61365e-12
-7.50296e-12
-9.57381e-12
7.29795e-12
7.41555e-12
5.96263e-13
5.31844e-13
-5.85387e-13
1.40565e-11
-5.8617e-13
8.77348e-13
-4.6972e-14
-1.31412e-11
-1.67952e-11
-7.59044e-12
1.78845e-11
1.83689e-12
-3.96062e-13
-2.96093e-11
1.6547e-11
-5.88888e-13
3.32364e-11
-1.44149e-11
1.34268e-13
-1.94068e-13
-1.72686e-11
2.38139e-12
9.10707e-13
-6.67085e-12
7.68378e-12
-1.84488e-11
-3.67306e-11
-5.45758e-13
3.06181e-13
8.24425e-14
2.93075e-13
-5.90961e-13
4.77369e-13
-3.91453e-13
7.67208e-12
5.84888e-13
-4.35777e-11
-2.89918e-13
-7.36214e-12
1.91645e-13
1.80316e-11
3.26346e-11
-2.02797e-11
-1.62953e-13
-1.2028e-12
1.34394e-11
-1.98189e-11
-1.95556e-11
1.35062e-13
-7.07877e-13
2.10092e-11
-1.31257e-11
0
-2.56814e-13
7.44655e-13
1.30224e-11
9.12924e-13
1.42285e-13
-9.77241e-12
-1.39183e-13
9.53696e-12
-7.82279e-12
7.85395e-12
-5.95741e-13
3.87245e-12
6.52591e-13
5.80618e-13
-9.15225e-12
-9.92097e-12
2.88512e-13
-6.95734e-12
-2.69955e-13
2.82231e-13
-8.34118e-12
2.18541e-14
-5.96164e-13
1.58772e-13
1.34619e-11
1.46417e-12
1.84635e-11
2.92441e-13
-9.99513e-14
1.22416e-11
8.29045e-15
1.03873e-11
-1.75994e-11
2.38725e-11
-2.93148e-11
5.54019e-13
0
5.88424e-13
3.58371e-12
1.33891e-11
-2.53475e-13
-2.91689e-12
1.75586e-11
4.03133e-11
-1.26221e-11
-1.18746e-13
9.53133e-14
1.66908e-11
-1.36195e-13
-6.01269e-13
3.08283e-14
-1.09114e-11
2.93069e-13
4.36885e-11
1.16665e-12
-1.98551e-13
2.46611e-13
-5.84861e-13
-2.94186e-12
-7.52803e-13
-3.63656e-14
-4.35344e-13
-1.79913e-11
-1.70961e-12
4.2453e-11
-6.68991e-12
7.91906e-12
-5.07571e-12
2.05386e-11
2.02278e-11
-8.81822e-13
3.76185e-13
-8.01791e-12
2.02649e-11
3.01239e-13
-3.85513e-13
2.97895e-13
-3.30087e-13
-2.11318e-13
8.76834e-12
-3.7898e-14
-1.07169e-11
1.194e-11
8.44098e-12
8.20028e-14
-7.44742e-13
-1.48961e-13
-1.32544e-13
-6.36045e-14
-1.04962e-12
-6.02793e-14
-1.20767e-13
2.25256e-12
8.3909e-15
-5.39925e-13
-7.89619e-12
-4.43562e-13
2.98052e-13
1.55431e-11
-1.29027e-11
-1.76317e-11
-1.82351e-11
1.17351e-12
-8.82634e-13
1.88042e-11
1.38901e-11
8.57462e-13
-5.8035e-13
2.43961e-12
0
6.49929e-12
4.08237e-11
2.65554e-11
-3.05409e-12
-1.26284e-11
2.70217e-13
2.48388e-14
0
3.60013e-11
-1.77902e-12
-6.91335e-12
8.95546e-14
1.46926e-12
5.90829e-13
-1.56696e-11
2.69942e-13
-3.07888e-13
-6.76452e-12
0
-1.50782e-11
5.21961e-13
-7.34318e-12
-1.17358e-12
1.77042e-11
-1.29319e-11
-7.52402e-12
-3.29708e-13
5.88473e-13
-1.44542e-12
-2.27775e-11
-2.40233e-13
-7.32703e-12
-8.0591e-12
-1.83928e-12
5.17124e-14
-4.61755e-13
1.5342e-13
-1.33611e-11
-2.19081e-11
-6.01805e-13
2.93169e-13
-2.97959e-13
-2.55817e-11
-1.01518e-12
1.26837e-13
1.04667e-11
4.10818e-13
7.06355e-13
-2.4974e-13
-2.35694e-11
1.48985e-13
1.48966e-13
1.93659e-13
-3.99658e-13
9.32327e-12
-1.57364e-13
5.36266e-13
1.58756e-13
2.65051e-14
1.12492e-13
2.98006e-13
7.08547e-15
5.96355e-13
-1.58408e-11
0
1.61654e-11
5.88349e-13
-1.79017e-11
-1.95193e-11
-1.76254e-11
-1.01695e-11
3.25394e-13
1.20699e-11
6.13733e-13
5.01971e-12
4.0032e-13
1.16994e-12
2.79003e-14
-2.88045e-11
5.65442e-12
-7.91073e-12
-2.8235e-13
-2.93414e-13
1.13439e-12
-1.02548e-13
-9.0647e-12
-9.85919e-13
0
-2.93914e-11
3.00337e-11
2.20973e-14
-3.31851e-13
7.35384e-12
3.07012e-11
1.42416e-11
-7.74383e-12
-6.30513e-14
1.17385e-12
1.48569e-12
1.33503e-11
-4.86737e-12
-1.60681e-13
1.85534e-11
-5.60524e-15
6.29161e-15
5.68233e-13
-8.62195e-12
-5.97488e-13
7.99312e-12
-6.02901e-13
8.95982e-13
-2.18037e-13
1.28996e-11
3.0581e-12
3.01422e-13
1.37399e-11
8.94004e-12
7.76893e-12
-2.40242e-14
9.80477e-12
1.6062e-13
-6.93358e-12
-1.247e-11
-1.63341e-11
3.96196e-14
9.83405e-12
5.95812e-13
-1.08542e-13
8.04438e-12
8.27343e-13
2.97805e-13
2.18015e-13
-4.75205e-13
-4.8806e-14
-2.9245e-13
1.48993e-13
-7.54428e-12
1.66977e-11
-1.75088e-11
2.1384e-11
0
0
3.39291e-11
2.0664e-11
-8.06535e-12
-6.56784e-12
9.39605e-12
-1.25833e-11
3.06805e-12
3.43982e-11
-5.88765e-13
1.17952e-12
-5.87928e-13
-2.68692e-11
3.87755e-11
-1.39334e-12
1.3452e-13
2.92828e-13
5.28062e-12
-2.89934e-13
1.66827e-11
2.24482e-13
-1.43476e-11
5.88753e-13
-1.39078e-11
4.06807e-13
2.97812e-13
-5.86148e-13
2.35902e-12
-3.32434e-13
-3.92404e-13
2.03474e-13
-2.9247e-13
6.46719e-12
-6.25927e-13
7.41087e-13
2.33349e-13
-1.93705e-11
2.41086e-11
2.14601e-11
9.53393e-14
-5.45261e-15
-8.96187e-13
2.25336e-13
-1.48586e-11
2.31499e-11
-6.48634e-15
-1.29413e-11
-1.23615e-13
-1.20555e-12
5.83241e-13
-2.97991e-13
1.26854e-11
7.43663e-12
-1.04854e-11
1.03268e-13
-3.77034e-12
-4.32279e-13
-1.10896e-11
2.41573e-12
0
0
-7.4925e-13
5.5435e-15
-9.71827e-12
6.92123e-12
-9.35864e-12
-1.66603e-11
-4.5026e-13
-5.08594e-13
7.74821e-12
-2.94547e-13
-1.72938e-11
1.81939e-11
-2.07991e-11
0
0
-1.63784e-11
-2.9424e-13
7.76715e-12
1.84761e-11
-2.81633e-13
1.12155e-12
3.68293e-12
1.15098e-12
-1.9462e-11
-3.01361e-11
-3.29753e-11
4.62951e-12
3.11484e-11
2.68291e-13
3.97765e-12
2.92839e-13
8.51691e-12
-5.53896e-13
8.49512e-12
-5.54776e-14
1.40538e-11
-1.22876e-12
1.63145e-11
-1.23804e-13
1.07852e-13
-1.46535e-11
0
-1.85315e-11
7.91985e-12
3.42378e-13
1.1698e-12
2.35537e-12
-1.43178e-13
5.17782e-12
-2.8067e-13
2.8474e-13
2.16042e-13
-4.31264e-11
-8.58019e-12
-4.25871e-12
2.98727e-13
1.09055e-12
1.46214e-11
-2.2751e-11
5.73373e-16
-1.54059e-11
-1.37535e-12
1.50722e-12
-7.13013e-12
-9.08932e-12
-8.29734e-12
1.47689e-13
-9.61441e-12
-6.33536e-13
6.75375e-12
-1.58046e-13
7.58342e-12
6.4691e-13
-9.23857e-12
0
6.77835e-13
-8.18912e-12
-9.079e-12
-6.98517e-12
2.02146e-13
1.20324e-12
-7.34115e-12
-1.58947e-11
-9.0925e-12
5.98219e-13
-1.52084e-11
-3.49908e-13
0
1.46432e-12
5.86233e-13
0
-8.82704e-13
-1.19502e-12
-2.94492e-13
-1.25224e-11
-4.4303e-13
-6.13853e-13
-2.86785e-11
2.83119e-11
-5.31836e-12
-2.94441e-12
1.86881e-12
-3.03917e-11
1.47264e-12
6.79251e-12
-2.92861e-13
7.05895e-13
1.81742e-12
-1.69369e-11
9.13776e-12
8.78473e-13
-8.50268e-12
-1.60988e-11
-3.41109e-13
7.34059e-12
3.25343e-11
-3.19108e-11
1.90109e-11
6.81686e-13
-1.85256e-13
-2.04731e-12
5.88888e-13
2.04113e-11
7.01086e-12
-7.22384e-12
-6.63566e-13
-9.05842e-13
2.16186e-11
3.9595e-13
4.28147e-14
2.71871e-11
1.437e-11
3.90635e-13
-2.68291e-14
-6.96036e-14
1.58335e-11
-4.79212e-13
2.08e-11
-1.2013e-13
-8.79432e-12
8.38282e-12
-6.98074e-12
2.05238e-11
9.60445e-15
-4.24429e-12
6.71007e-12
1.13224e-11
3.35676e-12
-1.93783e-12
5.96492e-13
8.83419e-13
7.46886e-13
9.10158e-12
-6.62284e-12
8.60248e-12
1.6201e-11
8.13832e-12
7.708e-12
-8.35304e-12
9.27409e-13
1.58095e-11
1.55098e-11
2.19674e-11
-2.04983e-12
2.93091e-13
-1.5793e-11
-2.94245e-13
8.96354e-13
-1.56141e-11
-1.30615e-11
1.60052e-11
1.84059e-12
-1.33333e-12
0
0
6.00489e-11
-1.30048e-12
-6.50512e-13
7.69114e-12
-3.64757e-12
1.61062e-11
-4.55336e-11
3.42354e-13
3.61417e-13
-6.17548e-12
1.52258e-11
3.3038e-11
-6.36941e-13
2.05407e-13
-4.14256e-13
-2.34455e-12
-3.54406e-12
-1.74245e-13
-2.023e-13
-8.41856e-12
8.77407e-13
0
-2.06301e-11
2.55726e-13
-1.06164e-11
1.3053e-12
-3.10746e-11
-2.25213e-11
7.80238e-12
5.93623e-12
-2.65921e-11
-3.23443e-11
-1.33631e-11
2.69531e-13
1.46289e-11
1.68984e-11
-5.10125e-13
-2.13986e-11
4.32652e-13
0
3.08509e-13
-2.16215e-15
5.96181e-13
6.62367e-13
5.465e-13
4.11496e-13
-9.23299e-12
-9.75237e-12
1.49172e-13
1.49254e-13
-5.77091e-13
1.45882e-12
9.10063e-12
6.66597e-12
-2.18987e-13
-5.29842e-13
7.74799e-12
1.59657e-11
8.9567e-12
-7.80706e-12
-1.94058e-11
-1.52396e-11
-2.75868e-11
0
-1.46919e-12
1.58349e-11
-1.38471e-11
-1.55449e-11
2.73652e-13
9.84387e-12
-1.60309e-11
-1.22414e-12
7.67324e-13
2.52617e-11
5.88417e-13
2.93336e-11
3.9082e-11
-6.02317e-13
3.13437e-13
-7.20613e-12
-1.55512e-11
3.17994e-11
-2.03181e-11
7.05006e-12
-8.30294e-12
-1.58677e-11
-2.87687e-11
1.65341e-11
-1.01768e-13
-7.16044e-12
-1.6175e-11
1.17596e-12
-1.17633e-12
-1.26362e-13
-5.07408e-14
1.43777e-11
-5.27656e-12
3.34369e-13
-2.787e-13
-2.45635e-12
-8.42432e-13
-2.1321e-14
2.217e-11
3.63311e-14
4.96732e-14
-2.98937e-13
1.82522e-11
-7.89778e-12
2.2143e-13
-1.5074e-11
-1.68953e-11
1.71116e-12
-3.01277e-13
7.21379e-12
4.92618e-12
-2.10831e-11
2.21684e-13
-1.00229e-11
-4.31079e-13
7.61603e-12
-6.93301e-12
7.03036e-12
7.05252e-12
2.09024e-12
-7.75903e-12
-7.93162e-13
-1.6745e-13
8.34141e-13
6.88368e-14
7.02807e-14
2.59115e-14
9.04658e-12
-6.67883e-12
5.9689e-13
-9.3258e-13
-1.19466e-12
3.71335e-13
5.93798e-12
-2.97701e-13
1.78729e-12
-2.67584e-12
1.33636e-11
1.46551e-11
7.10869e-12
1.29371e-11
-1.02191e-11
3.05894e-12
6.44438e-11
3.30784e-11
-2.80591e-11
3.17033e-11
1.2597e-12
9.4654e-13
-3.9678e-13
6.88041e-12
-8.10269e-15
-1.62071e-12
2.04353e-11
6.06439e-13
1.38233e-11
1.39354e-14
-1.08027e-11
-1.44324e-11
2.74767e-13
-2.55186e-13
5.41548e-13
3.63377e-11
3.0099e-13
4.13346e-13
8.34049e-12
-1.35354e-11
1.01426e-12
-1.1997e-12
2.03121e-13
1.08718e-11
3.662e-13
-3.63048e-11
7.42433e-14
-3.32809e-13
1.98346e-11
0
1.26074e-12
2.11741e-11
-1.20277e-12
1.80602e-12
8.99772e-13
-3.45904e-11
1.8092e-12
-1.39582e-13
0
1.0242e-13
-1.87599e-13
-3.30289e-13
7.76096e-12
2.97326e-13
8.06491e-12
8.96333e-12
8.90326e-12
-7.46291e-13
-7.44387e-13
8.14267e-15
-1.38286e-12
1.70132e-13
-1.79588e-13
-3.4647e-13
9.35414e-12
6.86408e-12
7.57927e-12
4.46635e-13
7.98722e-12
1.99405e-11
0
-6.73994e-13
-7.32214e-14
-2.96748e-13
3.26153e-12
-5.92869e-13
-2.97476e-13
-7.10143e-12
3.64768e-13
9.69082e-12
1.13812e-11
-7.7404e-12
4.4589e-12
4.46625e-12
1.46939e-11
-1.70858e-11
-4.43469e-13
-2.11045e-13
1.9636e-13
-1.50492e-11
5.89404e-13
5.67375e-12
-1.00768e-12
-1.34538e-11
-1.97984e-11
-1.71414e-12
1.62664e-11
-9.90828e-14
-6.32501e-13
4.51674e-13
-5.91464e-13
-5.72488e-12
-6.08629e-12
6.98804e-12
-5.76573e-12
-2.90453e-12
-2.9659e-12
1.87619e-13
1.0482e-13
1.19619e-13
3.19492e-11
-6.36473e-12
1.23811e-11
-3.10795e-12
4.47073e-12
-5.05413e-11
0
-7.47764e-12
8.06421e-12
1.06666e-12
4.49428e-11
-1.88743e-11
-1.63864e-11
-2.78095e-11
-3.78197e-13
0
-1.33348e-11
-3.62682e-13
9.65671e-12
-2.96401e-13
2.24343e-11
-2.85723e-11
-4.06633e-11
5.80931e-13
2.72943e-11
1.70486e-12
1.71596e-11
-6.86489e-12
-1.46255e-13
-1.33854e-11
1.6894e-11
-5.91435e-13
-1.36432e-11
1.57273e-11
-8.88941e-13
3.34303e-11
-1.78649e-12
-6.87469e-12
3.72179e-12
1.31214e-11
-1.55248e-14
-1.18416e-14
8.48172e-12
2.01771e-13
2.83945e-14
-7.28415e-12
-4.28192e-14
-2.97813e-13
6.5325e-12
5.93528e-13
-1.18548e-12
1.4803e-13
1.47989e-13
7.10339e-12
-1.48024e-13
-2.3116e-11
0
-5.93863e-13
-6.6761e-12
9.51396e-12
9.23247e-13
5.8109e-13
-3.28125e-13
-3.79143e-13
-7.79939e-12
3.00348e-13
5.5784e-12
2.96759e-13
-7.11071e-12
3.70878e-12
1.85636e-11
0
-4.37496e-14
6.90551e-14
-6.16529e-13
8.81762e-13
1.59552e-11
2.85594e-12
-7.54716e-12
2.29394e-11
-3.06301e-13
-9.60142e-13
0
-9.43804e-13
1.30041e-11
1.39147e-12
3.67269e-12
-2.9601e-13
-7.10161e-12
8.45364e-12
1.31456e-12
1.9519e-14
-5.64832e-12
-2.18478e-14
5.94721e-12
-1.44254e-11
2.50393e-12
-3.9953e-12
5.91831e-13
-3.92387e-12
1.55942e-11
4.54652e-12
3.28357e-12
2.54557e-12
4.32613e-12
1.44552e-11
-5.69737e-12
-1.18385e-12
1.00641e-11
3.05849e-12
1.70295e-13
1.2922e-11
7.26332e-13
2.66731e-13
7.98711e-13
-7.94286e-12
-5.88539e-12
1.48027e-13
7.40812e-13
4.50339e-12
-1.8519e-11
-1.42063e-12
-2.94384e-13
1.77e-12
-1.97092e-11
4.69213e-12
-2.64544e-12
-6.6685e-12
-1.26117e-11
2.00227e-12
-1.83176e-11
-3.89044e-12
5.46383e-12
-8.27859e-12
7.17515e-12
2.46123e-12
2.07332e-12
-1.48395e-13
-6.97758e-12
-9.64422e-12
7.5845e-14
-1.47993e-13
-7.98987e-12
-5.91861e-13
-8.14022e-12
0
-1.48379e-13
7.42413e-13
8.89222e-13
-1.4813e-13
-1.4802e-13
-8.72853e-12
6.95221e-12
1.4792e-13
-8.87645e-12
-7.40084e-12
-1.48126e-13
-1.48201e-13
1.11089e-11
2.81167e-12
-7.39135e-13
7.24025e-12
1.15275e-11
-7.38931e-13
1.04906e-11
2.95634e-13
-8.73111e-12
1.31825e-11
5.92003e-13
-2.9564e-13
-8.41055e-12
-2.9511e-13
-4.43077e-13
1.91996e-12
5.16401e-13
2.3975e-12
4.80243e-13
7.69666e-12
0
6.94437e-12
-1.69685e-12
-2.5489e-12
-2.0358e-12
-2.66484e-12
-4.43083e-13
-7.00578e-13
-1.47713e-13
1.4792e-13
0
-6.50249e-12
3.87685e-12
0
1.05322e-11
-6.82374e-12
0
-3.31951e-13
-1.32957e-12
-6.65506e-12
-1.03534e-12
-3.54684e-12
-9.45201e-12
5.32979e-12
-1.4241e-11
-7.56648e-12
1.47877e-13
-3.57722e-12
6.6475e-12
7.39458e-12
-1.03549e-12
-8.27427e-12
-9.59017e-13
4.02465e-12
8.72371e-12
1.47876e-13
7.67261e-12
2.76381e-12
2.80637e-12
2.95839e-13
1.48007e-13
-6.94727e-12
-7.00789e-13
2.4335e-12
1.10646e-13
-3.68771e-13
3.31646e-13
2.76517e-12
-1.47794e-13
6.66023e-12
-1.48121e-13
-2.95963e-13
4.69136e-12
-2.95412e-13
-7.53379e-12
7.38577e-13
-2.95391e-13
-7.83277e-12
0
1.4812e-13
1.92655e-12
6.81339e-12
-7.54835e-12
-4.43738e-13
-7.09834e-12
9.61205e-12
7.69095e-12
2.95982e-13
0
4.44599e-13
-1.48056e-13
2.96026e-13
7.69371e-12
-4.43746e-13
0
-1.39026e-11
8.8746e-13
1.67182e-11
1.48008e-13
2.96103e-13
6.80831e-12
-9.32068e-12
-5.91523e-13
-1.47845e-13
1.47847e-13
4.4353e-13
1.47835e-12
2.95733e-13
0
4.44011e-13
1.56822e-11
-2.95743e-13
8.12936e-12
-7.39012e-13
-1.4784e-13
-5.91341e-13
0
-1.77344e-11
-9.31536e-12
-3.10678e-12
2.95809e-13
-1.13836e-11
9.60694e-12
1.47854e-13
5.76964e-12
1.47929e-13
-4.43464e-13
-8.12695e-12
2.9563e-13
-2.95784e-13
0
-5.91364e-13
-1.13835e-11
-1.47938e-13
5.92257e-13
8.43912e-12
4.43688e-13
-8.86703e-12
-9.60738e-12
-5.47124e-12
-6.80287e-12
9.01808e-12
-6.80028e-12
-1.47928e-13
-5.92215e-13
2.961e-13
0
1.18222e-12
1.478e-13
5.91472e-13
-1.77483e-12
-2.9566e-13
-9.01474e-12
-7.2431e-12
7.39467e-13
4.43668e-13
-4.43343e-13
7.38675e-12
-9.75468e-12
-4.43652e-13
-7.39719e-13
-4.43584e-13
-1.00492e-11
-1.52192e-11
-2.9556e-13
7.38857e-12
-1.4773e-13
-4.43256e-13
-8.8704e-13
6.50898e-12
7.99217e-12
0
4.43571e-13
-2.95618e-13
1.47797e-13
0
-8.27625e-12
-9.01797e-12
0
-1.4799e-13
7.69837e-12
9.47204e-12
0
7.39413e-13
0
-1.47858e-13
-1.47875e-13
1.47923e-13
-2.95975e-13
-2.96081e-13
7.39884e-13
-7.69361e-12
1.47925e-13
8.43044e-12
-6.80311e-12
0
-7.39494e-13
0
-7.84117e-12
-4.43912e-13
-1.13922e-11
-1.09463e-11
5.91576e-13
-2.80974e-12
-1.47879e-13
0
1.47872e-13
-2.95766e-13
-4.43747e-13
-6.65751e-12
-1.18336e-12
7.54252e-12
-1.47869e-13
1.47872e-13
9.90836e-12
1.03516e-12
8.87154e-12
-1.33069e-12
-2.95761e-13
1.4791e-12
0
-6.95024e-12
-8.2807e-12
4.43686e-13
1.0355e-12
5.91693e-13
1.47877e-13
-8.13154e-12
6.35784e-12
2.95761e-13
1.47888e-13
0
1.47882e-13
1.47927e-13
-7.39868e-13
6.9545e-12
1.47904e-13
4.43554e-13
1.47847e-13
6.50612e-12
1.03523e-12
-3.99259e-12
7.09817e-12
-5.02932e-12
0
7.10203e-12
2.66212e-12
8.575e-12
-1.47841e-13
4.43593e-13
-7.09905e-12
-8.87233e-13
-9.01934e-12
-1.33088e-12
-9.02202e-12
-2.95788e-13
5.91406e-13
-7.39134e-12
7.5399e-12
2.95743e-13
2.95827e-13
-7.54203e-12
-6.94913e-12
-3.54823e-12
1.47847e-13
-1.47842e-13
7.39119e-13
-8.8696e-13
1.47859e-13
0
-1.47944e-13
-2.36658e-12
-1.47873e-13
8.87101e-13
8.87051e-12
1.47835e-13
7.98318e-12
1.47856e-13
9.90883e-12
8.13595e-12
-1.77563e-12
-6.80525e-12
7.39511e-12
-1.03512e-12
-1.4786e-12
-9.46284e-12
-7.39332e-12
-1.47891e-13
2.95851e-13
-2.95913e-13
1.33137e-12
-7.83955e-12
-7.39508e-12
0
-2.95768e-13
7.2462e-12
-7.39421e-13
-9.31726e-12
-1.47911e-13
2.95844e-13
0
-2.9581e-13
0
-2.9577e-12
-1.47884e-13
1.47881e-13
-1.47878e-13
-5.91513e-13
-1.47892e-13
-1.47904e-13
-8.13439e-12
6.35927e-12
-4.43651e-13
7.39447e-13
9.76128e-12
8.87363e-13
8.42909e-12
7.24562e-12
4.43624e-13
9.02103e-12
1.47886e-13
-1.47883e-13
-1.70073e-11
-1.47909e-13
-1.77512e-12
7.39604e-13
4.43679e-13
-7.98486e-12
6.35802e-12
-1.47867e-13
-2.95764e-13
2.95763e-13
0
0
-1.18362e-12
-8.43285e-12
0
-1.47871e-13
1.03498e-11
9.31502e-12
6.80246e-12
0
7.09879e-12