/*--------------------------------*- C++ -*----------------------------------*\
  =========                 |
  \\      /  F ield         | OpenFOAM: The Open Source CFD Toolbox
   \\    /   O peration     | Website:  https://openfoam.org
    \\  /    A nd           | Version:  10
     \\/     M anipulation  |
\*---------------------------------------------------------------------------*/
FoamFile
{
    format      ascii;
    class       volScalarField;
    location    "0.6";
    object      gradTz;
}
// * * * * * * * * * * * * * * * * * * * * * * * * * * * * * * * * * * * * * //

dimensions      [0 -1 0 1 0 0 0];

internalField   nonuniform List<scalar> 
46825
(
1.49086e-13
0
-1.48932e-13
1.78459e-11
4.45697e-13
-1.30738e-11
1.48719e-12
2.01066e-11
2.98155e-13
1.491e-11
5.96213e-13
-1.4893e-13
1.48581e-13
-1.82068e-11
1.25499e-11
1.47648e-13
-4.44079e-13
1.88703e-11
-2.97867e-13
-7.45312e-13
-1.51883e-11
0
-3.2645e-11
-1.99016e-11
-2.90893e-13
-5.81788e-13
-1.46336e-13
-1.24083e-11
-7.42861e-13
-5.95649e-13
-4.46072e-13
0
-6.43856e-12
2.2747e-11
4.70248e-12
4.41748e-12
-4.31903e-13
-2.72175e-11
0
-5.94772e-13
1.47065e-11
2.95287e-13
-1.20728e-11
-2.8502e-13
5.34612e-12
-5.20542e-12
-1.42508e-13
-2.57453e-11
1.62405e-12
-1.18838e-12
-1.47082e-11
1.4767e-13
-2.92438e-11
0
5.06544e-12
-2.20908e-11
1.43962e-11
0
1.47664e-13
2.97125e-13
-1.04116e-12
2.96157e-13
-1.33254e-11
-1.93037e-11
7.27023e-12
-1.85318e-12
8.64319e-12
5.27146e-12
4.44217e-13
-8.92385e-13
-4.46889e-13
0
-4.43494e-13
-1.85976e-11
-1.04768e-11
-2.91023e-13
-2.92875e-13
2.06966e-11
-2.43782e-11
2.97917e-13
-6.85861e-12
-1.48984e-13
1.39729e-11
-1.48082e-13
-1.47687e-12
1.46211e-11
4.44253e-13
-1.63516e-11
0
5.96405e-13
0
2.98193e-13
1.48959e-13
7.43695e-13
-1.04007e-12
1.48584e-13
5.94981e-13
1.19174e-12
0
-1.56582e-11
2.044e-11
-1.49346e-13
1.8667e-11
1.89529e-11
-2.98375e-13
-1.32776e-11
2.38778e-11
5.82422e-12
-1.49359e-13
1.49216e-13
-1.94111e-11
1.12218e-13
1.13989e-14
1.36994e-12
5.02669e-12
1.70522e-12
1.44593e-14
2.34974e-11
-3.74075e-13
-7.46658e-13
-1.07488e-11
7.33508e-14
3.87362e-12
-2.04632e-11
2.95805e-13
-2.77941e-11
2.95934e-13
1.09918e-11
-4.74159e-13
-2.98595e-13
1.87984e-11
5.96203e-12
0
5.24074e-11
2.90624e-13
1.16147e-12
-1.456e-12
-2.00336e-11
-4.5051e-12
1.8948e-11
1.53633e-11
1.00655e-11
3.6972e-11
-8.71846e-13
2.87475e-13
-2.87087e-13
1.44174e-12
-3.87048e-11
-4.40208e-13
-2.49091e-11
-1.50665e-11
1.11794e-11
-1.0349e-11
3.01992e-11
-1.00481e-11
-2.17873e-11
2.88005e-13
0
7.48602e-13
-1.49166e-13
-8.95413e-13
-3.11735e-11
-1.27291e-11
-1.89363e-11
5.76776e-13
-2.01606e-12
-8.67614e-12
2.73123e-11
5.67015e-12
-4.47681e-13
-4.4803e-13
2.54399e-12
-1.07003e-11
-1.70999e-11
8.79877e-13
-3.37033e-11
-3.05436e-11
2.10124e-11
1.23753e-11
1.35897e-11
1.4936e-13
-1.12246e-13
5.63166e-12
5.65755e-12
5.32075e-13
-5.50792e-12
-6.47693e-12
-9.1234e-13
5.68733e-12
8.96163e-13
0
-4.48054e-13
1.49332e-13
8.9537e-13
1.49176e-13
1.67081e-11
-1.49238e-13
4.48038e-13
0
1.49229e-13
5.96653e-13
-1.677e-11
9.6336e-13
-7.8731e-14
-2.28232e-13
1.39625e-11
1.35215e-11
-1.39623e-11
1.08948e-12
-1.43223e-11
-2.8716e-11
0
2.98791e-13
2.21314e-11
4.79605e-12
-4.49882e-12
-4.01174e-11
-3.94256e-11
0
-2.82036e-13
2.35694e-13
-2.98736e-13
-3.11799e-11
-2.8758e-11
-2.43533e-12
2.04303e-11
-1.21411e-11
2.72293e-12
-3.00317e-13
-1.71069e-11
3.87295e-12
-1.34552e-11
1.12001e-11
3.288e-06
2.59393e-06
2.64035e-06
2.40419e-06
1.58029e-07
9.03535e-13
1.25257e-13
-9.77858e-14
-2.997e-13
-4.59601e-11
2.5925e-06
-3.85281e-06
-3.95413e-06
-3.34291e-06
1.87861e-07
5.44551e-12
-1.47681e-11
-1.52125e-11
2.96867e-11
3.04838e-12
2.63933e-06
-3.95172e-06
-4.0618e-06
-3.41238e-06
1.89264e-07
2.9073e-11
1.49918e-11
-7.1727e-14
-6.58543e-12
-1.18386e-11
2.51722e-06
-3.32561e-06
-3.41087e-06
-2.86115e-06
1.84191e-07
-1.11708e-11
9.54344e-14
2.51993e-13
1.1946e-12
1.51381e-12
5.24306e-08
1.86991e-07
1.89088e-07
1.84231e-07
2.64802e-10
2.43538e-11
-1.7538e-12
6.67752e-12
2.98392e-13
3.87459e-11
1.80747e-12
-4.83995e-11
-1.96834e-11
2.53611e-11
2.85646e-11
2.99101e-13
-4.03317e-13
-4.47513e-13
-1.59011e-11
-1.16188e-13
-8.36477e-14
7.29601e-13
2.30935e-13
-3.93248e-13
1.29609e-11
1.89019e-13
1.61122e-11
-2.08332e-11
-8.84616e-14
-1.59737e-12
2.00084e-11
2.13831e-11
3.78298e-13
-5.80767e-12
1.38158e-13
1.63202e-11
1.48854e-13
1.94582e-11
2.97015e-13
-1.94244e-13
-1.35542e-10
-2.26089e-10
-1.98168e-10
-1.31725e-10
-2.94386e-13
3.05736e-11
-2.13993e-13
-1.17896e-13
-2.31323e-12
4.4959e-09
-6.703e-06
-6.81168e-06
-6.61423e-06
-6.80387e-06
-7.46482e-06
1.99661e-10
-1.51409e-11
-1.86026e-11
-1.51723e-10
-7.925e-06
-225.068
-293.445
-294.078
-292.551
-0.48343
1.91786e-08
-3.41989e-11
1.72796e-13
-2.07718e-10
-6.77655e-06
-293.441
-405.99
-407.487
-403.702
-1.14374
-1.94622e-08
2.37471e-11
-1.49369e-11
-2.12938e-10
-6.69957e-06
-294.055
-407.471
-409.058
-405.102
-1.14871
-1.36445e-08
2.11406e-11
4.45203e-13
-1.88941e-10
-6.80642e-06
-291.537
-403.557
-405.092
-401.164
-1.13916
-3.10931e-08
-3.83e-13
-2.44633e-13
-4.85505e-11
-7.44906e-06
-0.164513
-1.14077
-1.14854
-1.13909
-0.155282
3.25828e-08
-1.42878e-11
-1.38369e-11
2.96711e-13
1.83828e-10
2.79161e-08
-1.74423e-08
-1.3985e-08
-2.94178e-08
3.29208e-08
3.53937e-11
-1.73577e-11
-1.33927e-12
5.53155e-13
-1.50455e-11
2.15405e-13
7.1614e-12
-1.64097e-11
6.82636e-13
3.61418e-12
-1.79225e-13
1.27997e-11
0
2.34923e-12
1.61142e-11
2.84092e-13
7.76677e-15
-1.38179e-11
-1.33408e-11
1.57288e-13
-1.13602e-12
2.97342e-13
4.6291e-11
2.96347e-13
3.27598e-11
1.798e-09
3.65917e-09
3.59936e-09
3.57304e-09
-7.154e-11
-3.11132e-11
5.95599e-14
2.4179e-13
3.56178e-12
7.10687e-09
-0.00188339
0.016634
0.0168368
0.0163892
-0.000122171
2.05513e-09
1.75439e-11
-3.95329e-12
1.03495e-09
0.00818318
3.88475e-06
-1.66725e-11
6.01816e-13
3.66102e-09
0.0166424
1.12252e-05
3.56283e-11
1.53511e-11
3.55885e-09
0.0167793
1.14678e-05
2.26158e-12
-1.45715e-11
3.60606e-09
0.0163872
1.06425e-05
-1.3661e-11
-2.38208e-14
-4.66756e-11
-0.000112431
-3.0912e-07
-1.25447e-11
-2.6075e-11
-5.92316e-13
2.30666e-09
6.83266e-06
1.13323e-05
1.15052e-05
1.06279e-05
-3.07849e-07
-3.45638e-11
2.6056e-13
4.4586e-13
2.85515e-11
-1.82968e-11
-2.16552e-13
8.82532e-13
1.09344e-12
3.33906e-13
-3.24083e-11
-1.42253e-11
1.45677e-11
-1.38258e-11
-1.41432e-11
5.2045e-12
-2.0576e-11
-2.06026e-11
-1.18399e-13
-3.58951e-11
-2.64581e-13
-3.01845e-11
0
2.18162e-11
-2.97272e-13
-3.06686e-11
1.94721e-10
8.81844e-10
8.42269e-10
8.30103e-10
-1.51853e-11
3.18536e-11
-6.03794e-14
-4.38458e-12
4.70524e-13
-5.78502e-09
0.00039681
0.000537379
0.000538708
0.000536223
-8.25816e-06
3.26641e-10
1.37888e-11
1.84301e-11
1.85898e-10
0.000244548
1.6187e-06
1.54109e-11
1.71946e-13
8.21344e-10
0.000537827
8.66503e-07
8.37894e-14
1.5408e-11
8.39528e-10
0.000538695
8.01418e-07
-2.09325e-11
-1.07167e-12
8.08764e-10
0.000536263
6.70316e-07
4.88468e-13
-4.47161e-13
3.48345e-11
-3.56266e-06
-1.96105e-08
2.50118e-12
1.40857e-11
-2.97733e-13
2.521e-10
4.02648e-07
7.59942e-07
8.016e-07
6.7023e-07
-2.41511e-08
-2.94401e-11
1.65351e-11
8.92018e-13
-5.9741e-13
3.46544e-11
-2.71196e-14
-2.70366e-11
-7.11734e-13
-1.69319e-13
2.90836e-12
8.10802e-14
-1.29366e-11
1.48749e-13
3.70821e-11
-1.71767e-11
-2.91755e-13
5.36054e-13
-2.15611e-13
-7.12969e-13
-1.72999e-11
1.64202e-11
-1.48796e-13
-1.79286e-11
2.82892e-11
1.07942e-12
4.91701e-11
2.1533e-10
2.15808e-10
2.39298e-10
-2.3603e-12
-3.07304e-11
3.70087e-13
-1.86314e-11
8.20319e-13
-9.78267e-09
9.70446e-05
0.000181187
0.000121064
0.000180695
-3.67324e-06
1.05235e-10
4.20766e-13
9.26861e-13
1.52152e-11
9.5734e-05
9.93642e-08
1.72876e-11
-1.42623e-11
2.08572e-10
0.000181316
1.39507e-07
-2.04601e-11
8.91243e-14
1.9236e-10
0.000181378
1.01097e-07
-1.69627e-11
1.58006e-11
2.27299e-10
0.000180608
-3.76372e-08
1.33905e-11
1.82691e-13
-1.78867e-11
-1.30185e-06
6.4041e-09
1.26206e-11
2.58614e-11
5.96655e-13
-6.74281e-12
5.91317e-08
8.66273e-08
1.12165e-07
9.10946e-08
-4.25114e-09
2.95111e-11
-4.15419e-13
1.48761e-13
-2.87478e-11
1.41802e-11
9.86267e-14
-2.33973e-11
-4.16902e-13
-5.37123e-13
1.9099e-11
1.45718e-11
-1.50277e-11
3.30389e-11
1.4844e-11
-2.24794e-11
1.81278e-11
1.60402e-11
2.20274e-13
3.88667e-11
8.01094e-13
1.38566e-11
-5.95465e-13
-2.11642e-11
-3.3971e-11
1.64759e-12
1.17146e-11
6.29416e-11
2.8716e-11
3.68403e-11
-1.02322e-12
-1.49282e-12
-7.95514e-13
-1.55392e-11
3.28529e-13
2.71903e-09
4.81946e-05
0.000181633
6.11363e-05
0.000121032
-4.29886e-06
4.14251e-11
4.16893e-13
-3.79512e-12
2.1081e-11
1.31104e-06
-1.19129e-08
-3.31952e-13
-1.27275e-13
7.93268e-11
0.000181543
-3.5836e-08
-9.41133e-14
1.41403e-11
9.66811e-11
6.11402e-05
-3.98219e-08
-1.494e-11
5.51762e-13
4.53128e-11
0.000181023
-8.54301e-07
-2.42108e-11
1.09987e-13
-3.41567e-11
-1.18483e-07
2.79993e-08
-1.04299e-12
5.16109e-14
-2.98647e-13
1.46999e-11
-3.39604e-08
1.41221e-08
-2.87924e-08
-1.15883e-08
-1.47569e-09
-3.01287e-13
1.77163e-13
2.97672e-13
2.53989e-14
-5.21619e-12
-1.83483e-13
2.02563e-11
4.24254e-13
-4.3418e-13
-6.80438e-12
1.52547e-11
-1.48862e-13
-4.46642e-13
-2.28104e-11
3.65672e-14
4.98587e-14
1.44368e-11
-1.84854e-13
4.78352e-13
1.74085e-11
-1.65891e-11
1.48922e-13
-4.38883e-13
5.66327e-12
-1.72949e-12
-6.53088e-11
-3.81472e-10
-3.41371e-10
-3.42392e-10
4.44411e-12
2.09035e-12
2.50296e-13
1.851e-11
-2.88204e-11
1.5139e-09
-9.8092e-05
-5.70336e-05
-0.000117417
2.94523e-06
-4.36317e-06
-1.42738e-10
-8.54514e-13
1.35774e-11
-4.42104e-11
-9.97926e-05
-3.74114e-07
-1.06759e-13
1.45497e-11
-3.72048e-10
-5.70357e-05
-7.41875e-07
-6.28568e-13
-1.79207e-13
-4.09292e-10
-5.7235e-05
-7.59293e-07
8.92938e-13
-1.76545e-11
-3.43518e-10
-5.67696e-05
-3.45132e-08
4.03386e-14
1.40123e-13
2.828e-12
6.53677e-07
-1.44135e-07
-7.1815e-14
-5.27753e-14
-2.77761e-11
-1.63581e-10
-3.52426e-07
-7.60709e-07
-7.57509e-07
-6.51428e-07
1.56449e-08
-3.07638e-13
-6.54682e-13
-1.48893e-13
1.56379e-11
3.19048e-12
-2.03382e-11
2.20088e-11
1.46931e-12
7.86204e-13
-2.34148e-11
-5.58104e-13
1.48915e-13
-4.31873e-12
-2.18785e-11
-7.76147e-14
-1.781e-11
-1.568e-11
1.97041e-14
2.00929e-12
-5.40409e-13
-2.79738e-13
5.95841e-13
1.86047e-11
3.27886e-12
-1.21683e-12
-1.05567e-11
-1.08885e-10
-1.55689e-11
-2.71967e-10
1.47127e-11
-1.4929e-12
1.08293e-12
1.586e-11
2.85304e-11
1.17431e-09
-0.00539765
-0.012581
-0.0127795
-0.0125023
5.03852e-05
-3.61994e-10
3.8827e-13
-1.36841e-11
-3.13695e-11
-0.00549264
-4.91472e-06
1.43865e-11
-8.84495e-14
-9.39072e-11
-0.0125809
-8.1386e-06
-1.79584e-13
-1.47814e-11
-4.69954e-12
-0.0127792
-8.26579e-06
1.44297e-11
-1.50604e-11
-2.76918e-10
-0.0123818
-7.50118e-06
2.39818e-11
3.85797e-13
1.37494e-11
5.69035e-05
1.37618e-07
2.32009e-13
-2.8602e-14
2.80738e-11
-4.05724e-10
-4.91843e-06
-8.15612e-06
-8.26446e-06
-7.59554e-06
1.42948e-07
-3.01161e-13
9.20532e-13
0
2.60776e-13
-1.45895e-11
5.34128e-13
3.49085e-13
-1.01061e-11
-1.59144e-13
-7.24996e-13
-1.53299e-11
7.44784e-13
-4.46828e-13
6.48959e-13
-2.85292e-14
-4.45798e-13
8.15297e-12
1.50444e-11
2.79684e-13
1.59336e-11
-1.46015e-11
-1.63864e-12
-1.08515e-12
-3.66648e-11
-1.66579e-13
2.64167e-11
-3.17758e-11
2.53257e-11
-3.143e-11
2.0831e-13
1.79157e-12
-5.33541e-13
-2.39028e-13
-3.83127e-11
-1.74312e-10
2.94085e-05
2.53584e-05
2.54747e-05
2.5532e-05
2.68528e-05
3.88392e-10
4.63189e-13
-1.4348e-11
-3.34573e-11
2.91084e-05
-2.55851e-08
-1.65417e-11
1.87629e-11
-1.52981e-11
2.53677e-05
-3.07586e-08
1.84973e-13
3.8111e-13
-8.83402e-13
2.55444e-05
-3.05493e-08
-6.90807e-13
1.71322e-11
-1.76226e-12
2.56644e-05
-3.10714e-08
-1.64276e-11
2.14929e-11
1.77669e-13
2.70344e-05
6.00268e-09
-1.50814e-11
2.13937e-13
-1.19412e-12
3.64457e-10
-2.55961e-08
-3.08111e-08
-3.06014e-08
-3.11645e-08
6.02486e-09
2.80037e-11
1.65746e-13
2.97907e-13
9.8799e-13
2.0141e-13
1.99724e-11
7.94407e-13
-1.39102e-12
-1.07001e-12
2.37928e-11
-1.90132e-11
1.48964e-13
-1.45965e-11
-1.21011e-11
1.911e-13
-8.05891e-14
-1.42754e-11
1.30744e-11
-2.2075e-11
3.32614e-13
-1.28812e-13
0
-1.87556e-11
3.36896e-11
1.44116e-12
-3.33732e-11
3.10539e-11
-2.93196e-11
2.83791e-11
5.62406e-13
-3.82258e-11
-6.52727e-14
-3.96239e-14
3.80195e-11
-6.11983e-13
-5.79988e-13
1.17621e-12
-8.24601e-12
5.87213e-11
-2.71842e-13
5.04742e-12
-6.55113e-14
-6.08694e-13
2.98591e-11
-6.55464e-11
1.55924e-12
-1.42761e-11
-3.25762e-14
0
-2.3523e-11
-4.11388e-13
-5.293e-13
-1.38156e-13
5.86377e-13
-6.12557e-11
-1.07764e-13
1.45675e-13
1.44708e-11
3.18894e-11
2.34885e-12
1.4158e-12
1.52786e-11
-1.44421e-13
5.08188e-14
7.50758e-13
-9.05959e-12
-2.13834e-11
1.48581e-11
5.97279e-13
-1.26563e-11
9.95121e-13
4.4575e-11
4.10355e-11
3.72558e-11
2.63408e-11
-2.77185e-11
-1.43745e-12
1.50435e-11
8.54171e-14
-1.6097e-11
2.55742e-13
1.47614e-11
2.36419e-11
5.48235e-14
1.777e-12
4.16119e-13
-1.04268e-12
-5.95738e-13
-2.24004e-13
-1.37392e-14
-4.44894e-13
-3.61107e-11
-1.50859e-11
7.95623e-13
-1.22488e-12
3.4054e-11
1.19154e-12
7.89405e-13
3.13077e-11
-2.45384e-13
-2.75128e-11
2.9284e-13
8.79252e-13
-2.92454e-13
-4.52483e-13
3.64395e-11
1.9754e-11
2.26718e-13
1.65731e-13
-1.12651e-10
6.57252e-13
-2.41041e-12
1.18163e-12
-1.76641e-12
1.41473e-12
1.65027e-11
9.8569e-14
-4.41149e-14
-1.17076e-12
1.5425e-10
-3.09772e-11
3.01081e-11
-3.53528e-11
2.92826e-13
-5.45589e-11
-2.89047e-13
2.2681e-13
-5.86474e-14
-2.93069e-13
-1.77244e-12
3.80102e-11
-1.69371e-15
1.97905e-13
-3.18767e-11
-1.1776e-12
1.31317e-12
3.16624e-11
-2.21907e-11
-3.16143e-13
-2.12001e-12
2.99089e-11
1.50045e-11
1.66934e-11
2.09071e-12
-3.47057e-12
-1.33425e-12
3.0163e-13
-2.14763e-13
-5.83096e-11
-2.62757e-11
-3.01411e-13
-2.34658e-13
-1.48933e-13
-9.08428e-13
1.01128e-13
3.83381e-13
-7.53956e-13
-4.43173e-13
-1.81866e-11
1.73768e-11
2.1743e-11
5.95761e-13
-4.02105e-12
3.34248e-11
3.86963e-13
6.34864e-13
3.41708e-11
-1.3063e-11
1.32727e-11
6.19355e-13
3.7791e-14
1.7425e-11
2.71297e-13
-3.13072e-11
-2.9957e-13
3.30778e-11
-2.78249e-11
5.86273e-13
-2.92488e-13
7.9387e-13
1.19482e-12
-3.65627e-13
-2.10981e-11
-1.24725e-12
6.12329e-13
-4.45416e-13
-1.16281e-13
0
-1.06005e-11
6.88645e-13
-5.44987e-12
-2.5442e-13
3.3033e-12
5.85425e-13
2.15574e-12
5.63649e-11
8.46672e-14
-6.43447e-14
5.85745e-13
-1.33571e-12
8.58627e-14
-3.51348e-14
2.19252e-11
-5.86243e-13
5.9099e-13
-3.81827e-11
-9.28486e-14
3.14381e-13
0
8.12706e-11
-1.47235e-12
-1.51457e-11
2.77511e-13
-6.85272e-14
2.94472e-13
-3.01547e-11
3.49551e-11
-3.04255e-11
-2.38955e-12
-1.30939e-12
2.72521e-13
2.90861e-13
4.92765e-13
2.13215e-11
2.70066e-11
0
-1.32497e-11
-1.57864e-11
-8.53323e-14
1.64646e-11
-1.7987e-11
-1.48373e-11
8.16562e-12
1.58769e-13
-1.26374e-12
9.10406e-14
0
2.97866e-13
-2.74444e-13
-6.31573e-14
4.18265e-13
1.25111e-11
-1.03199e-13
-2.46319e-12
-1.54582e-11
-1.92463e-11
1.4447e-11
1.48556e-11
5.96263e-13
5.31844e-13
-5.85387e-13
2.8113e-11
-2.93085e-13
8.77348e-13
2.4962e-13
-1.31412e-11
-3.33103e-11
-1.51028e-11
3.63515e-11
1.83689e-12
-3.96062e-13
-5.91048e-11
1.6547e-11
-5.88888e-13
6.60779e-11
-2.73643e-11
1.34771e-13
-2.00452e-13
-3.33664e-11
2.38139e-12
2.0701e-12
-1.35099e-11
1.56225e-11
-3.63118e-11
-7.09457e-11
-8.42637e-13
2.94888e-13
9.28889e-14
2.93075e-13
-5.90961e-13
4.74861e-13
-3.91453e-13
1.47909e-11
5.84888e-13
-8.59776e-11
-2.89918e-13
-1.52071e-11
1.97966e-13
3.45066e-11
6.6001e-11
-4.01902e-11
-1.64283e-13
-1.80008e-12
1.34394e-11
-3.91689e-11
-4.01941e-11
1.5266e-13
-7.0114e-13
4.20172e-11
-2.68861e-11
0
-2.57468e-13
7.44655e-13
2.59662e-11
9.12924e-13
-1.5179e-13
-2.04688e-11
-1.27043e-13
1.8999e-11
-1.65129e-11
1.91631e-11
-5.95741e-13
3.87245e-12
6.54117e-13
5.80618e-13
-1.80181e-11
-1.97707e-11
3.07463e-13
-1.36489e-11
-2.69955e-13
4.32495e-13
-1.68313e-11
1.70378e-13
-5.96164e-13
1.54046e-13
2.69238e-11
1.46417e-12
3.6634e-11
2.92441e-13
-9.82998e-14
1.22416e-11
8.5777e-15
2.09932e-11
-3.60593e-11
2.6321e-11
-5.66134e-11
5.54019e-13
0
5.88424e-13
3.58073e-12
2.69672e-11
-2.53475e-13
-2.91689e-12
3.39466e-11
8.09718e-11
-2.59812e-11
-1.16473e-13
9.53133e-14
3.4553e-11
4.54632e-13
-8.71611e-13
3.08283e-14
-2.2062e-11
5.86139e-13
8.56059e-11
1.14404e-12
-1.9742e-13
2.56981e-13
-5.84861e-13
-2.94186e-12
-7.55365e-13
-3.63656e-14
-4.35344e-13
-3.47583e-11
-1.71073e-12
8.45839e-11
-1.33299e-11
1.58085e-11
-5.07571e-12
3.98498e-11
4.05704e-11
-5.72356e-13
3.76185e-13
-1.38434e-11
4.01633e-11
3.01239e-13
-3.85513e-13
2.97895e-13
1.17727e-13
-2.12757e-13
1.77949e-11
8.73917e-14
-2.18917e-11
2.4025e-11
1.69812e-11
-6.53988e-14
-7.44742e-13
-1.48961e-13
-1.32544e-13
-6.37845e-14
-1.05788e-12
-6.58108e-14
-1.2949e-13
2.25686e-12
8.3909e-15
-5.40906e-13
-1.51964e-11
-1.03888e-12
2.98052e-13
3.22115e-11
-2.63919e-11
-3.26186e-11
-3.58819e-11
1.17351e-12
-8.82634e-13
3.70115e-11
2.72885e-11
2.18464e-12
-5.8035e-13
2.43961e-12
0
6.49929e-12
7.86893e-11
4.95701e-11
-3.0983e-12
-2.67937e-11
2.70217e-13
1.87181e-14
0
7.08413e-11
-1.83258e-12
-1.41993e-11
8.53711e-14
1.46926e-12
5.90829e-13
-3.09441e-11
2.71715e-13
-3.07888e-13
-6.76452e-12
-1.18332e-12
-3.10895e-11
5.19692e-13
-1.44862e-11
-8.80182e-13
6.07842e-11
-2.6529e-11
-1.53956e-11
-3.29411e-13
2.94237e-13
-1.44542e-12
-4.52777e-11
-2.36452e-13
-1.49208e-11
-8.0591e-12
-1.83928e-12
1.21894e-13
-5.8036e-13
7.3826e-14
-2.81297e-11
-4.14688e-11
-6.01805e-13
1.43767e-13
-2.97959e-13
-5.19294e-11
-1.01518e-12
1.24845e-13
2.10672e-11
4.10818e-13
7.15429e-13
-2.47678e-13
-4.69407e-11
1.48985e-13
1.48966e-13
1.93659e-13
-3.99651e-13
1.82118e-11
-1.57364e-13
5.36266e-13
1.60428e-13
2.70813e-14
1.12492e-13
2.98006e-13
5.17784e-15
5.96355e-13
-3.25192e-11
2.93495e-13
3.11551e-11
2.94175e-13
-3.52164e-11
-3.89566e-11
-3.55495e-11
-1.9997e-11
3.34466e-14
1.20622e-11
6.13733e-13
5.01971e-12
3.16532e-13
8.22689e-13
-4.85931e-13
-5.63868e-11
1.04795e-11
-1.54365e-11
-2.8235e-13
-2.93414e-13
1.19123e-12
-1.45845e-13
-1.80968e-11
-9.83759e-13
0
-5.70116e-11
6.01815e-11
1.05529e-14
-3.31851e-13
7.35384e-12
6.06869e-11
3.02991e-11
-1.47177e-11
-6.30513e-14
1.17385e-12
1.91582e-12
2.67395e-11
-4.8551e-12
-1.61221e-13
3.76957e-11
-5.60524e-15
2.48805e-14
5.69421e-13
-1.72622e-11
-5.97488e-13
1.66649e-11
-6.02901e-13
1.12401e-12
-1.36129e-13
2.52347e-11
3.04008e-12
3.01422e-13
2.75896e-11
1.80291e-11
1.55098e-11
-2.31601e-14
1.9868e-11
1.6062e-13
-1.36054e-11
-2.45555e-11
-3.22606e-11
-1.07663e-13
1.90721e-11
5.95812e-13
-1.10759e-13
1.65963e-11
8.30113e-13
2.97805e-13
2.18015e-13
-4.70378e-13
-4.8806e-14
-2.9245e-13
1.48993e-13
-1.45396e-11
3.36935e-11
-3.59806e-11
4.24751e-11
0
0
6.90282e-11
4.00842e-11
-8.06535e-12
-1.34145e-11
1.58758e-11
-1.25872e-11
3.06805e-12
7.37766e-11
-5.88765e-13
5.89762e-13
-5.87928e-13
-5.62842e-11
7.62568e-11
-1.53886e-12
1.3452e-13
5.85656e-13
5.85893e-12
-5.62895e-13
3.32632e-11
2.20385e-13
-2.8988e-11
5.88753e-13
-2.85368e-11
4.2602e-13
2.90395e-13
-5.86148e-13
2.35902e-12
-3.11249e-13
-6.56244e-13
2.03474e-13
-2.9247e-13
6.46719e-12
-6.03442e-13
8.58933e-12
2.33349e-13
-3.81994e-11
5.0585e-11
4.22398e-11
9.42058e-14
1.46203e-13
-8.96187e-13
2.25336e-13
-2.90908e-11
4.59749e-11
1.31158e-14
-2.51655e-11
-1.23615e-13
-1.20555e-12
4.33614e-13
-2.97991e-13
2.56375e-11
1.45109e-11
-2.09531e-11
1.03268e-13
-3.74265e-12
-4.2433e-13
-2.25888e-11
4.7974e-12
-1.49e-13
0
-7.49759e-13
-1.42079e-13
-1.87318e-11
1.42953e-11
-1.75994e-11
-3.33634e-11
-4.5026e-13
-5.08594e-13
1.57944e-11
-2.94365e-13
-3.39912e-11
3.6373e-11
-4.18912e-11
0
0
-3.42191e-11
-2.9424e-13
7.76715e-12
3.75292e-11
-2.8005e-13
1.11711e-12
3.68293e-12
1.15308e-12
-1.9462e-11
-6.02723e-11
-6.4773e-11
4.62951e-12
6.25664e-11
4.15259e-13
3.97765e-12
2.92839e-13
7.93861e-12
-5.59856e-13
1.74922e-11
-5.54776e-14
2.86931e-11
-1.22876e-12
3.21295e-11
-1.15334e-13
1.00653e-13
-2.84278e-11
0
-3.73242e-11
1.51597e-11
3.47415e-13
1.46225e-12
2.35537e-12
-1.42466e-13
5.17441e-12
-2.8067e-13
2.8474e-13
2.71177e-13
-8.55819e-11
-1.59483e-11
-9.0245e-12
2.98727e-13
1.08185e-12
2.9155e-11
-4.53129e-11
-2.95287e-13
-2.99978e-11
-1.36806e-12
1.50722e-12
-1.36817e-11
-1.81786e-11
-1.60405e-11
2.94658e-13
-1.93342e-11
-6.25913e-13
1.34186e-11
-1.64288e-13
1.50975e-11
6.47456e-13
-1.83281e-11
0
6.79254e-13
-1.65959e-11
-1.81018e-11
-1.3923e-11
1.94942e-13
1.1904e-12
-1.44191e-11
-3.22785e-11
-1.78869e-11
5.98773e-13
-2.98204e-11
-3.42197e-13
0
1.46432e-12
0
0
-8.82704e-13
-1.19502e-12
-5.91103e-13
-2.25482e-11
-4.4303e-13
-6.13853e-13
-3.50554e-11
5.6034e-11
-5.31836e-12
-2.94441e-12
1.86768e-12
-6.20996e-11
1.47307e-12
1.37704e-11
-2.92861e-13
7.05895e-13
1.81742e-12
-3.33617e-11
1.88284e-11
8.78473e-13
-1.55793e-11
-3.19188e-11
-3.48454e-13
1.42958e-11
6.44823e-11
-6.67763e-11
3.78016e-11
6.81686e-13
-1.85256e-13
-2.04731e-12
5.88888e-13
4.20098e-11
7.01086e-12
-1.45941e-11
-6.63566e-13
-9.06968e-13
4.35832e-11
3.93341e-13
1.9113e-13
5.37766e-11
3.03673e-11
3.87228e-13
-2.68291e-14
-5.76327e-14
2.98431e-11
-1.83592e-13
4.06957e-11
-1.20057e-13
-1.75886e-11
1.67223e-11
-1.42026e-11
4.05825e-11
9.60445e-15
-1.26422e-11
1.36949e-11
2.26702e-11
1.30366e-11
-1.93783e-12
5.96492e-13
8.83419e-13
7.57413e-13
1.81399e-11
-1.43043e-11
1.68715e-11
3.29286e-11
1.52178e-11
1.51539e-11
-1.62586e-11
9.30027e-13
3.04257e-11
3.10009e-11
4.30561e-11
-2.04983e-12
2.93091e-13
-3.2171e-11
-2.94245e-13
5.97569e-13
-3.18648e-11
-2.60537e-11
3.17872e-11
1.84059e-12
-1.33333e-12
0
0
8.77185e-11
-1.30048e-12
-6.50512e-13
1.5222e-11
-3.91397e-12
3.16267e-11
-9.01751e-11
4.56661e-14
2.01767e-13
-1.30956e-11
3.07444e-11
6.48759e-11
-6.39942e-13
2.05407e-13
-2.29513e-13
-4.39603e-12
-3.54406e-12
-1.70522e-13
-2.023e-13
-1.67246e-11
1.16988e-12
0
-4.19109e-11
2.68391e-13
-2.13998e-11
1.30325e-12
-5.92975e-11
-4.38781e-11
1.51869e-11
1.20445e-11
-5.31841e-11
-6.46217e-11
-2.46737e-11
2.69531e-13
2.92898e-11
3.1181e-11
-5.10554e-13
-4.15917e-11
4.32652e-13
2.98322e-13
3.06144e-13
-5.62159e-15
6.16386e-13
6.62367e-13
6.71721e-13
4.142e-13
-1.80972e-11
-1.80987e-11
1.49172e-13
1.49254e-13
-5.76435e-13
1.45882e-12
1.82041e-11
1.38385e-11
-2.18987e-13
-5.29842e-13
1.47126e-11
3.28355e-11
1.76148e-11
-1.60163e-11
-3.67217e-11
-3.07333e-11
-4.90106e-11
0
-1.46919e-12
3.22562e-11
-2.76942e-11
-3.01929e-11
4.17401e-13
2.01868e-11
-3.18314e-11
-1.22414e-12
7.67324e-13
4.11238e-11
5.88417e-13
5.86671e-11
7.52774e-11
-6.02317e-13
3.13437e-13
-1.39416e-11
-3.11024e-11
6.30908e-11
-4.07654e-11
1.43558e-11
-1.82084e-11
-3.08539e-11
-5.81246e-11
3.41239e-11
-3.94495e-14
-1.43323e-11
-3.26442e-11
1.17596e-12
-1.17633e-12
-1.26362e-13
-5.99142e-14
2.84621e-11
-5.27656e-12
1.48988e-13
-2.38558e-13
-4.70651e-12
-8.42432e-13
-2.1321e-14
4.37522e-11
1.75142e-14
4.71039e-14
0
3.45519e-11
-1.68191e-11
4.45142e-13
-3.00806e-11
-3.11736e-11
1.71116e-12
-3.01277e-13
1.4381e-11
1.3435e-11
-4.19794e-11
2.21684e-13
-1.99323e-11
-4.31079e-13
1.59587e-11
-1.39787e-11
7.74177e-12
7.0378e-12
2.09024e-12
-1.50704e-11
-7.8762e-13
-1.6745e-13
8.34141e-13
6.88368e-14
7.02807e-14
1.72261e-14
1.85721e-11
-1.45925e-11
5.9689e-13
-7.76761e-13
-3.28532e-12
3.71335e-13
6.23488e-12
-2.97701e-13
1.78729e-12
-2.67584e-12
2.76181e-11
2.93101e-11
1.4573e-11
2.57127e-11
-1.02191e-11
3.05894e-12
1.26225e-10
6.81775e-11
-5.57063e-11
6.15087e-11
1.85783e-12
8.30878e-13
-3.9678e-13
1.36929e-11
-4.97737e-14
-2.23307e-12
4.03726e-11
6.2728e-13
2.79847e-11
9.52249e-14
-1.39373e-11
-3.21722e-11
3.04847e-13
-2.55186e-13
5.41548e-13
7.28393e-11
0
4.28676e-13
1.67832e-11
-2.74882e-11
2.22483e-12
-1.49963e-12
1.78798e-13
2.14259e-11
3.662e-13
-7.03705e-11
7.42433e-14
-3.32809e-13
3.93933e-11
0
9.68026e-13
4.17517e-11
-1.20277e-12
1.80602e-12
8.99772e-13
-6.80519e-11
1.8092e-12
-2.89083e-13
0
-1.95509e-13
-1.86219e-13
-3.25079e-13
1.57573e-11
2.97326e-13
1.62309e-11
1.78938e-11
1.75637e-11
-7.46291e-13
-8.93264e-13
8.14267e-15
-1.38286e-12
1.70132e-13
-1.79588e-13
-3.4647e-13
1.85467e-11
1.44306e-11
1.57677e-11
4.46635e-13
1.60248e-11
3.89882e-11
0
-6.73994e-13
2.25024e-13
-2.96748e-13
3.26153e-12
-5.92869e-13
-2.97476e-13
-7.24549e-12
3.68975e-13
9.35944e-12
2.30367e-11
-1.54859e-11
5.31999e-12
9.2446e-12
2.85927e-11
-3.42396e-11
-8.01031e-13
-2.11045e-13
2.01862e-13
-2.86817e-11
5.89404e-13
1.04944e-11
-1.00768e-12
-2.6917e-11
-3.67238e-11
-1.71414e-12
3.22371e-11
-9.57511e-14
-4.80112e-13
1.54905e-13
-5.91464e-13
-1.16526e-11
-1.23247e-11
1.36723e-11
-1.19866e-11
-3.48544e-12
-2.9659e-12
1.90515e-13
1.0482e-13
-1.77551e-13
6.27151e-11
-6.36473e-12
1.93692e-11
-7.73197e-12
9.01724e-12
-1.01083e-10
0
-1.50363e-11
1.63695e-11
1.06666e-12
9.22509e-11
-3.21681e-11
-3.20142e-11
-5.53916e-11
-3.78197e-13
-5.80745e-13
-2.78548e-11
-3.71883e-13
1.96118e-11
-2.96401e-13
4.45901e-11
-5.7716e-11
-8.19074e-11
5.80931e-13
2.72943e-11
2.27314e-12
3.43193e-11
-1.41478e-11
-1.50762e-13
-2.76632e-11
3.52609e-11
-5.91435e-13
-2.81761e-11
3.08611e-11
-5.92627e-13
6.68605e-11
-1.78649e-12
-1.38686e-11
3.72179e-12
2.59221e-11
-1.596e-14
-1.18416e-14
1.66525e-11
1.92611e-13
-1.19373e-13
-8.02717e-12
-4.28192e-14
-2.97813e-13
1.39558e-11
5.93528e-13
-1.18548e-12
1.4803e-13
1.47989e-13
1.25789e-11
1.48024e-13
-4.62319e-11
-1.48378e-13
-7.42328e-13
-1.4094e-11
1.93981e-11
9.23247e-13
4.12317e-13
-1.05182e-12
-3.73379e-13
-1.49044e-11
2.92558e-13
1.10082e-11
4.45139e-13
-1.43696e-11
5.91119e-12
3.65378e-11
0
-4.37496e-14
6.90551e-14
-6.16529e-13
8.81762e-13
3.16149e-11
2.85883e-12
-1.43544e-11
4.57604e-11
8.60395e-15
-9.26895e-13
2.95347e-13
-9.43804e-13
2.53789e-11
1.39147e-12
7.34379e-12
-2.9601e-13
-1.43512e-11
1.64879e-11
1.31456e-12
1.9519e-14
-1.20804e-11
-2.03499e-14
1.18428e-11
-3.00284e-11
5.52738e-12
-3.9953e-12
5.91831e-13
-7.84904e-12
3.02998e-11
4.54652e-12
7.24838e-12
2.54557e-12
8.59925e-12
2.89104e-11
-9.82433e-12
-1.03587e-12
1.96842e-11
5.78373e-12
4.63967e-13
2.58854e-11
1.38596e-12
2.66731e-13
8.03318e-13
-1.52974e-11
-1.12527e-11
1.48027e-13
7.40812e-13
9.11195e-12
-3.73319e-11
-1.42063e-12
-2.94384e-13
1.77e-12
-3.94185e-11
9.67752e-12
-5.44547e-12
-1.3337e-11
-2.5075e-11
4.37587e-12
-3.66352e-11
-7.65375e-12
1.11544e-11
-1.60604e-11
1.54367e-11
5.25469e-12
4.44282e-12
-1.48395e-13
-1.4549e-11
-1.91401e-11
8.35164e-14
-1.47993e-13
-1.62757e-11
-5.91861e-13
-1.61324e-11
0
-1.48379e-13
7.42413e-13
8.89222e-13
-1.4813e-13
-1.4802e-13
-1.74571e-11
9.76267e-12
0
-1.81967e-11
-1.49497e-11
-2.96252e-13
-1.48201e-13
2.28103e-11
5.32738e-12
-7.39135e-13
1.49238e-11
2.33505e-11
-7.38931e-13
2.1129e-11
2.95634e-13
-1.80542e-11
1.98479e-11
7.40004e-13
-2.9564e-13
-1.70055e-11
-7.37774e-13
-4.43077e-13
4.43067e-12
5.16401e-13
5.68023e-12
1.10825e-12
1.50973e-11
0
1.30022e-11
-4.61101e-12
-4.83922e-12
-2.0358e-12
-4.95956e-12
-6.27701e-13
1.95424e-12
-1.47713e-13
1.4792e-13
0
-1.33005e-11
7.45831e-12
1.48061e-13
2.06193e-11
-1.34991e-11
0
-4.79484e-13
-1.32957e-12
-6.80295e-12
-1.03534e-12
-1.07883e-11
-1.99378e-11
1.05856e-11
-2.86304e-11
-1.48362e-11
1.47877e-13
-5.93744e-12
9.89738e-12
1.47892e-11
-2.07099e-12
-1.65485e-11
-9.59017e-13
8.52931e-12
1.6856e-11
1.47876e-13
1.57879e-11
4.53264e-12
6.20356e-12
2.95839e-13
1.48007e-13
-1.37467e-11
-7.00789e-13
4.68265e-12
1.10646e-13
-1.99136e-12
3.31646e-13
5.12478e-12
-1.47794e-13
1.39125e-11
-1.48121e-13
-2.95963e-13
9.6413e-12
-2.95412e-13
-1.50676e-11
7.38577e-13
-2.95391e-13
-1.61089e-11
0
1.4812e-13
1.92655e-12
1.33306e-11
-1.42086e-11
-4.43738e-13
-1.49361e-11
1.90762e-11
1.44945e-11
2.95982e-13
0
4.44599e-13
-1.48056e-13
2.96026e-13
1.03569e-11
-4.43746e-13
2.95805e-13
-2.67699e-11
8.8746e-13
3.32884e-11
1.48008e-13
2.96103e-13
1.37646e-11
-1.89372e-11
-5.91523e-13
-1.47845e-13
1.47847e-13
4.4353e-13
1.47835e-12
2.95733e-13
0
1.48004e-13
3.04767e-11
-1.47872e-13
1.61109e-11
-7.39012e-13
-1.4784e-13
-5.91341e-13
0
-3.60599e-11
-1.89264e-11
-3.10678e-12
2.95809e-13
-2.27671e-11
1.95095e-11
1.47854e-13
5.76964e-12
1.47929e-13
-4.43464e-13
-1.62539e-11
2.9563e-13
-2.95784e-13
0
-5.91364e-13
-2.26192e-11
-1.47938e-13
5.92257e-13
1.70263e-11
4.43688e-13
-1.77341e-11
-1.9806e-11
-1.44914e-11
-1.37536e-11
1.78883e-11
-1.36006e-11
-1.47928e-13
-5.92215e-13
4.4415e-13
0
1.18222e-12
1.478e-13
5.91472e-13
-3.40175e-12
-2.9566e-13
-1.81773e-11
-1.41906e-11
7.39467e-13
4.43668e-13
-4.43343e-13
1.52167e-11
-1.95094e-11
-4.43652e-13
-7.39719e-13
-4.43584e-13
-1.98029e-11
-3.08818e-11
-2.9556e-13
1.49249e-11
-1.4773e-13
-4.43256e-13
-8.8704e-13
1.31659e-11
1.52443e-11
0
4.43571e-13
-2.95618e-13
1.47797e-13
0
-1.64047e-11
-1.78881e-11
0
-1.4799e-13
1.52487e-11
1.89441e-11
0
7.39413e-13
0
-1.47858e-13
0
1.47923e-13
-2.95975e-13
-2.96081e-13
7.39884e-13
-1.5979e-11
0
1.71567e-11
-9.90888e-12
0
-7.39494e-13
1.47918e-13
-1.55344e-11
-4.43912e-13
-2.26365e-11
-2.17447e-11
5.91576e-13
-2.80974e-12
-1.47879e-13
0
1.47872e-13
-1.47883e-13
-4.43747e-13
-1.30191e-11
-1.03544e-12
1.46414e-11
-1.47869e-13
1.47872e-13
1.96688e-11
1.03516e-12
1.74474e-11
-1.33069e-12
-2.95761e-13
3.1061e-12
0
-1.30132e-11
-1.56742e-11
4.43686e-13
1.0355e-12
5.91693e-13
1.47877e-13
-1.68545e-11
1.31593e-11
2.95761e-13
1.47888e-13
0
1.47882e-13
1.47927e-13
-7.39868e-13
1.36131e-11
1.47904e-13
4.43554e-13
1.47847e-13
6.50612e-12
8.87341e-13
-3.99259e-12
1.50836e-11
-5.02932e-12
0
1.42041e-11
2.66212e-12
1.62629e-11
-1.47841e-13
4.43593e-13
-1.41981e-11
-8.87233e-13
-1.92215e-11
-1.33088e-12
-1.74524e-11
-2.95788e-13
1.33066e-12
-1.4487e-11
1.52276e-11
2.95743e-13
2.95827e-13
-1.53798e-11
-1.47854e-11
-3.40038e-12
1.47847e-13
-1.47842e-13
7.39119e-13
-8.8696e-13
1.47859e-13
0
4.43831e-13
-2.36658e-12
-1.47873e-13
8.87101e-13
1.64104e-11
1.47835e-13
1.65577e-11
0
2.05571e-11
1.64198e-11
-1.9236e-12
-1.33146e-11
1.40507e-11
-1.03512e-12
-1.4786e-12
-1.89257e-11
-1.4343e-11
-1.47891e-13
2.95851e-13
-2.95913e-13
1.33137e-12
-1.56791e-11
-9.90941e-12
0
-2.95768e-13
1.47882e-11
-7.39421e-13
-1.96698e-11
-1.47911e-13
2.95844e-13
0
-2.9581e-13
0
-2.9577e-12
-1.47884e-13
1.47881e-13
-1.47878e-13
-5.91513e-13
-1.47892e-13
-1.47904e-13
-1.5973e-11
1.37538e-11
-4.43651e-13
7.39447e-13
1.93747e-11
8.87363e-13
1.70061e-11
1.61178e-11
4.43624e-13
1.83378e-11
1.47886e-13
-1.47883e-13
-3.46061e-11
-1.47909e-13
-1.77512e-12
7.39604e-13
4.43679e-13
-1.67091e-11
1.31596e-11
-1.47867e-13
-2.95764e-13
2.95763e-13
0
0
-1.18362e-12
-1.70137e-11
0