/*--------------------------------*- C++ -*----------------------------------*\
  =========                 |
  \\      /  F ield         | OpenFOAM: The Open Source CFD Toolbox
   \\    /   O peration     | Website:  https://openfoam.org
    \\  /    A nd           | Version:  10
     \\/     M anipulation  |
\*---------------------------------------------------------------------------*/
FoamFile
{
    format      ascii;
    class       volScalarField;
    location    "0.6";
    object      gradTz;
}
// * * * * * * * * * * * * * * * * * * * * * * * * * * * * * * * * * * * * * //

dimensions      [0 -1 0 1 0 0 0];

internalField   nonuniform List<scalar> 
47104
(
5.96396e-13
7.45367e-13
4.46795e-13
-3.71779e-12
1.48558e-13
0
-1.4871e-13
-1.48928e-13
-4.47202e-13
-1.49091e-13
-2.9813e-13
-1.48935e-13
-2.58535e-11
-1.31738e-11
1.03349e-12
-1.47641e-13
1.33217e-12
1.33723e-11
-1.71269e-11
1.52039e-11
-1.35515e-11
2.9715e-13
5.02235e-12
-8.77998e-12
-1.45444e-13
-8.43571e-12
5.12162e-12
1.47714e-13
-2.97142e-13
-1.04238e-12
-1.47211e-11
-8.88062e-13
0
-5.61458e-12
-1.13995e-11
1.19695e-11
-2.87925e-13
1.02429e-12
-1.52447e-11
-1.65048e-11
2.97099e-13
0
6.39935e-12
1.28244e-12
1.40674e-13
-4.22021e-12
-2.99233e-12
0
2.95259e-13
-1.72309e-11
-1.41128e-11
0
-2.03618e-12
1.42493e-13
4.78288e-12
1.40673e-13
3.70477e-12
-1.45438e-13
-3.366e-11
-1.42603e-11
-1.3979e-11
6.66092e-12
-5.5606e-12
-1.52598e-11
1.46765e-11
5.6996e-13
0
6.58473e-12
-2.05736e-11
1.50187e-11
0
-5.94332e-13
6.9425e-12
4.97498e-12
3.18498e-11
-2.90868e-13
1.46325e-13
-4.43135e-13
1.48576e-13
-7.44609e-13
0
1.45952e-11
1.27768e-11
-7.4e-13
-2.95246e-13
-5.90501e-13
-8.88035e-13
-1.72344e-11
-1.4893e-13
-3.04095e-11
0
-2.98113e-13
-7.44526e-13
-4.4605e-13
1.48533e-13
-6.83266e-12
-1.48692e-11
7.44574e-13
1.41609e-11
-1.49094e-13
5.58629e-13
8.76985e-13
1.8965e-11
1.34304e-11
-1.1265e-13
4.84061e-13
0
0
-5.97376e-13
-3.17536e-13
-1.91505e-14
-2.54374e-12
1.42467e-11
3.58956e-12
-2.79595e-12
-7.34882e-13
-2.62454e-11
-5.18812e-12
1.05113e-11
1.47643e-11
-6.7188e-12
3.85193e-13
-1.1025e-11
-9.19344e-12
0
2.95676e-13
-2.92968e-11
5.94152e-13
-5.69625e-12
-7.46501e-13
-1.43238e-11
5.10637e-12
-4.21098e-11
-2.63504e-12
1.04625e-11
-1.07436e-11
5.82403e-13
2.7105e-11
1.57568e-11
-7.46005e-13
0
2.6363e-12
-1.18314e-12
0
-3.13353e-11
-1.72255e-12
-2.56635e-11
-2.93228e-13
-1.26999e-13
2.98318e-13
-4.47528e-13
2.27941e-13
5.91341e-13
5.80729e-13
-3.4738e-11
-8.60039e-13
-7.77604e-12
3.07703e-11
-9.1287e-12
0
4.47698e-13
-2.75762e-11
2.95927e-12
8.73597e-13
-1.6436e-11
8.63998e-13
2.92021e-11
0
-6.21498e-12
-4.47643e-13
1.49339e-13
-5.38559e-12
-8.91228e-13
-5.89227e-13
-1.67136e-11
2.93044e-13
2.93557e-13
2.95743e-13
1.1546e-12
-7.46597e-13
2.98711e-13
-5.01258e-12
-3.57291e-12
-1.36117e-11
-4.56626e-12
1.00076e-11
-4.15431e-12
-9.38355e-12
-6.28441e-12
-1.62785e-11
-1.9143e-14
-1.67435e-11
1.92585e-11
1.4919e-13
-2.6184e-13
1.62759e-11
-7.64202e-13
7.46544e-13
1.4524e-11
3.82396e-14
1.5107e-11
1.33406e-13
2.54303e-12
4.35328e-12
3.16228e-14
-2.08527e-11
-5.47561e-13
4.27984e-12
4.28006e-13
1.94487e-14
-2.27563e-13
1.93951e-11
2.36048e-11
7.77563e-12
-2.54787e-11
1.49957e-12
-3.1434e-11
-1.91147e-11
2.32761e-11
-1.7646e-11
1.25948e-11
3.82411e-11
-6.96242e-12
-9.68717e-12
-3.95741e-12
-1.00627e-11
2.36752e-11
-1.21022e-11
-3.15362e-11
9.36222e-14
1.55089e-13
2.99028e-13
3.69314e-11
3.28823e-06
2.59381e-06
2.64036e-06
2.404e-06
1.58037e-07
1.05425e-11
5.1486e-13
-4.10689e-13
0
-1.40028e-11
2.59313e-06
-3.85331e-06
-3.95459e-06
-3.34345e-06
1.87929e-07
2.72307e-11
1.68574e-11
-1.58148e-12
-5.99818e-13
3.04928e-12
2.64024e-06
-3.95457e-06
-4.06368e-06
-3.41692e-06
1.89592e-07
3.99829e-11
1.38997e-11
1.4294e-11
-1.40708e-11
2.2461e-11
2.40422e-06
-3.34355e-06
-3.41698e-06
-2.95134e-06
1.87084e-07
2.17399e-11
-1.46965e-11
1.41784e-11
3.70364e-11
-2.26911e-11
1.58092e-07
1.87995e-07
1.89622e-07
1.87086e-07
-1.00794e-08
7.51595e-12
-3.13855e-13
1.25456e-13
-1.93978e-11
-1.08119e-11
2.71077e-11
6.35355e-12
1.51444e-12
1.11713e-11
5.41124e-12
3.14075e-11
1.41958e-11
1.68665e-13
-7.59001e-13
1.64204e-11
4.60117e-13
1.38554e-11
2.2018e-11
1.45599e-11
-8.29803e-14
1.74826e-11
4.0866e-13
4.46548e-13
-3.43013e-13
-1.85485e-11
-1.41666e-11
4.69265e-14
-5.36798e-13
2.5331e-13
-1.51979e-11
3.4824e-13
0
-1.67505e-11
-3.56495e-11
1.27787e-13
-1.42908e-10
-1.5063e-10
-1.73873e-10
-1.99343e-10
-4.65121e-11
-3.02733e-11
-3.96646e-12
-1.23597e-11
-6.44863e-12
4.41844e-09
-7.90184e-06
-6.7435e-06
-6.67636e-06
-6.80991e-06
-7.46786e-06
2.80959e-10
-2.13176e-11
1.38667e-13
-1.31703e-10
-7.90237e-06
-225.066
-293.444
-294.078
-292.552
-0.483398
2.83615e-08
-1.36371e-13
1.196e-13
-1.59503e-10
-6.74284e-06
-293.443
-405.995
-407.489
-403.706
-1.14377
-1.83664e-08
9.01814e-13
1.36209e-13
-1.96977e-10
-6.67677e-06
-294.078
-407.489
-409.066
-405.122
-1.14883
-1.34742e-08
2.32998e-11
-6.82084e-14
-1.50624e-10
-6.81331e-06
-292.552
-403.705
-405.122
-401.509
-1.14353
-3.04575e-08
1.17475e-13
7.78847e-14
-7.44799e-11
-7.4537e-06
-0.483436
-1.14379
-1.14884
-1.14353
-0.118493
3.24506e-08
3.82264e-13
-4.91412e-14
2.96842e-13
2.15436e-10
2.81962e-08
-1.84894e-08
-1.38063e-08
-3.26962e-08
3.26904e-08
-3.06471e-11
-1.17939e-13
-2.97683e-13
1.67151e-11
-1.91674e-11
2.60116e-13
-1.3943e-11
-4.37747e-13
2.25689e-11
-2.49756e-13
1.84326e-11
0
-1.50152e-11
2.77937e-12
-1.89948e-12
2.15465e-14
3.39694e-13
2.06921e-11
2.92364e-13
-4.10238e-12
-7.42217e-13
-1.93698e-14
-1.35197e-11
-1.48218e-12
1.30004e-12
1.09629e-09
3.63785e-09
3.56728e-09
3.60125e-09
-4.86439e-11
3.05102e-11
1.79375e-11
2.46001e-13
-3.20843e-11
1.54679e-09
0.00846255
0.0166274
0.0167371
0.0163905
-0.0001122
2.30962e-09
1.59834e-11
-3.8554e-14
1.09191e-09
0.00844823
6.8211e-06
2.04825e-12
5.02615e-14
3.60586e-09
0.0166247
1.13236e-05
3.09171e-14
1.61002e-11
3.57574e-09
0.0167331
1.1485e-05
1.56693e-12
1.73014e-14
3.38001e-09
0.0162107
1.06325e-05
1.55379e-11
1.10937e-12
-5.84249e-11
-0.000111058
-3.08264e-07
-4.07027e-12
1.30607e-11
2.96305e-13
2.2508e-09
6.81285e-06
1.13211e-05
1.14647e-05
1.01092e-05
-2.65976e-07
1.19194e-12
7.6598e-13
1.29189e-13
4.18246e-13
-1.62946e-11
1.65348e-11
-1.40063e-11
6.49764e-14
5.39422e-13
7.10374e-14
-1.20583e-12
0
1.22841e-12
-3.55625e-13
3.54676e-13
3.09619e-13
-9.18965e-14
1.18364e-13
-9.18458e-14
1.54284e-11
-2.76737e-13
-1.29363e-13
1.6947e-11
0
2.46835e-13
1.94533e-10
8.24099e-10
8.07181e-10
7.85478e-10
1.97006e-11
-2.97749e-13
1.94363e-11
-2.67522e-12
2.23265e-13
-2.18116e-09
0.000330397
0.000524289
0.000510481
0.000517436
-2.89831e-06
1.8147e-10
2.13661e-11
-1.12674e-13
1.6974e-10
0.000304541
3.95506e-07
-2.18528e-13
2.74357e-13
8.25518e-10
0.000520576
7.61025e-07
-1.66149e-11
-2.11049e-11
8.4979e-10
0.000511748
7.94193e-07
-2.3106e-11
5.16968e-13
8.19805e-10
0.000828658
6.75068e-07
4.65084e-14
-4.83932e-14
-7.78024e-13
0.000194824
-2.24842e-08
1.99025e-11
3.32862e-14
2.97643e-13
2.89331e-10
4.0656e-07
7.62139e-07
8.05965e-07
1.43752e-06
-2.94608e-08
1.80239e-12
2.63112e-13
-9.03989e-14
-1.88691e-11
-6.38251e-13
-1.50992e-11
3.0169e-11
1.62932e-11
-2.17682e-11
-4.38444e-12
-1.816e-11
-1.09867e-13
-6.33856e-13
-3.21366e-11
-3.46195e-13
-1.05044e-13
-4.06627e-13
1.67531e-11
-1.44033e-11
-2.76459e-13
6.80125e-13
7.43833e-13
1.34663e-11
-2.38232e-12
-6.26488e-13
3.6554e-11
2.06561e-10
2.51812e-10
2.33733e-10
-7.17058e-11
2.86392e-11
2.04941e-14
4.39774e-13
-2.04361e-13
-2.79404e-09
0.000141699
0.000179473
0.000149752
0.000192605
-6.32757e-07
3.36137e-11
-1.60841e-11
-4.02326e-13
-2.80755e-11
-4.3493e-05
5.852e-08
2.8335e-11
-5.36322e-13
1.55643e-10
0.000140871
1.12385e-07
2.58869e-13
1.45263e-13
2.07295e-10
0.000151339
1.19267e-07
-1.2993e-12
-1.83913e-11
2.55352e-10
0.000271229
9.78438e-08
-1.52569e-11
-1.48745e-11
-4.40509e-11
-3.13734e-06
-3.5723e-09
3.50163e-12
-1.30714e-11
-5.96606e-13
1.09109e-11
5.90308e-08
1.12683e-07
1.25641e-07
2.07557e-07
-1.33204e-08
-1.80679e-12
-3.86171e-13
4.07502e-13
1.36621e-13
-1.51396e-11
-1.65201e-11
1.75086e-11
4.06865e-13
4.78563e-13
1.1833e-13
-1.5934e-11
-3.87757e-14
-5.95434e-13
4.72424e-12
-5.25046e-13
2.2851e-14
-6.36614e-12
-8.05238e-13
2.67087e-13
-7.7287e-13
2.2661e-13
0
9.74719e-14
3.87395e-12
-4.30619e-13
-4.97473e-12
5.53352e-11
4.24855e-11
7.95194e-11
3.27647e-11
-5.67413e-11
-1.56374e-11
2.17852e-11
-2.85118e-11
-2.5976e-09
0.000108912
0.000141516
0.000108994
0.000155751
2.18312e-07
4.16741e-11
4.77855e-13
-6.8113e-14
-1.87146e-10
0.00167171
-5.12784e-09
5.45366e-13
4.16354e-14
1.7567e-12
-1.99163e-05
-1.40267e-08
1.55676e-11
3.62088e-11
6.18197e-11
0.000108345
-1.50105e-08
1.60567e-11
-2.29997e-13
3.04036e-11
0.000159743
-1.30908e-08
-6.81244e-13
-2.27874e-13
4.36398e-11
1.12904e-07
8.22152e-10
-1.95025e-11
1.44993e-13
-6.27124e-12
2.74199e-11
-6.9088e-09
-1.48776e-08
-3.28622e-08
-5.85695e-07
4.24484e-08
-6.0263e-13
-3.73173e-13
-1.48836e-13
1.84455e-11
6.60766e-13
1.60194e-11
-2.29863e-11
-1.6339e-11
-3.0305e-13
4.0884e-12
-5.49854e-13
-5.9548e-13
1.48904e-13
2.90885e-11
1.76282e-13
-1.76673e-11
-4.9036e-15
-1.68269e-11
1.41086e-11
-3.96098e-14
1.96997e-11
-5.9559e-13
-1.9953e-11
-4.05384e-11
3.31372e-13
-5.3847e-11
-3.52798e-10
-3.98767e-10
-3.78304e-10
5.10955e-12
2.83747e-11
-4.83213e-13
-1.86696e-11
2.9726e-11
-6.19612e-11
6.62737e-05
-4.25433e-05
-8.57973e-05
-1.66671e-05
1.26825e-06
-9.92811e-11
1.43286e-11
-1.53503e-11
8.20219e-11
-0.000674668
-3.54572e-07
3.82846e-12
2.92589e-13
-3.13542e-10
9.80005e-05
-7.57341e-07
3.61754e-14
-1.52772e-11
-3.43364e-10
-8.23635e-05
-7.86925e-07
-9.33794e-13
1.8771e-11
-3.32105e-10
-1.58511e-05
-6.55285e-07
3.23988e-13
1.45753e-11
2.1655e-11
1.08572e-06
1.40026e-08
3.75151e-12
-2.14398e-13
4.09186e-11
-1.112e-10
-3.5525e-07
-7.5699e-07
-7.7415e-07
1.23061e-07
-1.67444e-08
3.01295e-13
7.16343e-15
-2.97783e-13
5.13455e-15
1.7888e-11
1.96086e-11
-1.74547e-11
-1.27191e-14
-2.34168e-11
-1.99935e-11
-9.75179e-14
-1.48925e-13
-4.46784e-13
-4.29272e-12
2.92166e-13
1.49473e-11
5.88694e-12
1.38745e-11
1.39208e-13
-4.99237e-13
2.92069e-13
-2.97877e-13
1.36151e-13
3.96448e-11
-1.59462e-12
4.92362e-11
-1.03607e-10
1.67427e-11
-2.75155e-10
1.14449e-11
2.98661e-13
-3.57364e-12
1.30976e-13
3.74207e-14
-3.98036e-09
-0.00539618
-0.0126364
-0.0127795
-0.0123991
5.57265e-05
-4.30244e-10
-9.2659e-14
2.32558e-13
-6.38954e-11
-0.00506004
-4.91175e-06
-4.26146e-13
6.03949e-14
-1.17971e-10
-0.0125915
-8.13228e-06
1.7158e-11
-1.48516e-11
-2.52589e-11
-0.0127872
-8.26907e-06
-1.52178e-11
-1.42604e-11
-3.0767e-10
-0.0124022
-7.57508e-06
-1.71969e-11
1.41271e-13
-1.51256e-11
5.56065e-05
1.42487e-07
-1.96308e-13
-4.90509e-13
-3.40461e-11
-4.29655e-10
-4.91438e-06
-8.13198e-06
-8.25999e-06
-7.47217e-06
1.32688e-07
-3.01167e-13
1.87283e-13
-2.9786e-13
4.95294e-13
-1.58414e-12
1.72198e-11
-6.67477e-12
1.63847e-14
5.1835e-13
3.37628e-13
-3.21996e-14
8.9377e-13
2.08501e-11
1.3706e-11
6.39051e-13
1.74313e-11
1.30391e-12
1.89833e-13
-6.14826e-14
-5.54324e-13
-1.9468e-11
1.48955e-13
3.68682e-11
-5.96154e-13
5.76372e-13
-3.72867e-11
0
-1.44225e-12
-4.1119e-12
7.14198e-13
2.08983e-12
8.509e-13
1.85971e-11
-3.62149e-11
2.63746e-10
2.92562e-05
2.5389e-05
2.516e-05
2.56514e-05
2.70434e-05
3.95454e-10
-2.96706e-11
1.57538e-11
-2.93547e-13
2.92057e-05
-2.55694e-08
-1.84329e-11
-2.27086e-13
-3.53063e-12
2.54349e-05
-3.08432e-08
2.66831e-14
1.53264e-11
-3.71142e-11
2.51756e-05
-3.06507e-08
4.45017e-13
-5.29635e-13
5.87436e-13
2.57025e-05
-3.12269e-08
-1.43755e-11
-3.05519e-11
2.99363e-13
2.71224e-05
5.97393e-09
-2.67293e-11
1.56375e-13
-3.85106e-11
3.77687e-10
-2.557e-08
-3.08118e-08
-3.06148e-08
-3.11766e-08
6.06988e-09
6.02208e-13
-3.01349e-13
-7.44725e-13
-1.74285e-11
-2.572e-11
-3.33013e-11
-1.54335e-13
-1.00184e-13
2.26548e-11
1.37539e-14
-1.4692e-11
-1.48971e-13
1.48915e-13
-1.76234e-11
1.45426e-11
-1.46463e-11
-1.62322e-11
-1.30334e-11
-1.30599e-11
1.68007e-12
-7.51423e-13
-1.4895e-13
1.14997e-13
-2.98101e-13
6.30555e-11
-2.92924e-13
-5.85873e-13
-7.03665e-12
-2.9256e-13
4.25183e-13
-3.94198e-11
-1.2189e-11
8.41272e-14
3.61158e-11
-1.22628e-12
6.83828e-11
1.17604e-12
-2.35599e-12
5.87198e-13
-3.80452e-11
-3.97292e-13
-2.54457e-11
8.87583e-14
-3.42646e-11
-7.03835e-11
1.76018e-12
-2.70376e-13
2.28622e-11
0
8.34718e-11
-3.30438e-11
-1.71671e-11
-2.26139e-13
2.93277e-13
3.35853e-11
8.52864e-11
-8.39432e-13
3.53816e-11
2.80872e-11
1.35579e-10
1.31539e-11
-2.30636e-12
-1.39952e-12
1.13506e-11
9.10332e-11
-1.47941e-12
4.86184e-13
-9.21807e-12
3.88377e-11
-1.04002e-11
1.9994e-12
2.82517e-11
-2.81743e-11
7.2045e-14
1.86264e-12
0
-1.72122e-11
1.48938e-13
2.09607e-14
1.63723e-12
-1.71664e-11
1.4119e-11
6.12772e-14
-5.34719e-13
1.76101e-11
-7.20161e-13
-1.10136e-13
-2.08463e-11
-1.43921e-11
-6.12231e-13
2.5522e-13
-1.55489e-12
-3.51685e-13
1.37292e-11
-1.45426e-11
1.8063e-13
-1.93487e-14
-1.75664e-11
0
-6.10609e-11
2.92849e-12
-5.85626e-13
-1.93426e-11
2.92439e-13
-2.33638e-13
6.86968e-11
-1.19341e-12
4.64956e-13
-5.18843e-13
-1.83876e-12
4.68473e-12
6.29926e-11
5.90812e-13
6.24108e-11
1.95646e-12
-5.19257e-11
1.53018e-11
-1.36918e-11
3.51247e-11
2.59834e-13
4.3387e-13
-2.16953e-11
9.34868e-13
-2.92816e-13
1.5634e-10
-3.9074e-12
-1.63331e-11
-7.04418e-14
-2.93059e-13
2.8356e-11
-3.97679e-11
-1.14968e-12
7.34242e-13
-2.71958e-11
-3.59121e-11
1.34783e-12
1.40161e-11
-3.91581e-12
-1.05738e-11
-2.06077e-13
3.84793e-11
2.27902e-11
8.55072e-14
3.22563e-11
8.91102e-13
3.35979e-13
-2.86468e-11
2.89203e-11
-5.09538e-14
-2.25735e-12
1.86289e-13
-2.02932e-11
8.93536e-13
1.75773e-11
4.49196e-11
3.48205e-11
-2.11665e-11
-3.81753e-15
-3.02225e-13
2.01338e-11
1.46829e-11
-1.23032e-12
-7.44475e-13
1.81072e-11
-1.44953e-11
3.54247e-14
1.73503e-11
2.87039e-13
1.28358e-11
-3.75983e-13
-1.32689e-11
-7.89333e-12
2.67449e-13
0
-1.1401e-12
3.07415e-11
3.89507e-11
2.72601e-11
2.92478e-13
-5.02874e-13
-3.07654e-11
1.58082e-11
1.43895e-13
-3.93082e-11
6.12541e-13
5.42075e-12
-1.45404e-12
-5.55522e-11
-5.88924e-13
-5.89213e-11
5.15877e-11
1.08469e-11
1.89276e-11
5.85467e-13
1.13863e-12
3.93971e-13
-1.27073e-13
-8.40425e-12
0
6.45656e-13
-8.63439e-12
3.62648e-14
-4.86324e-14
-1.17243e-12
0
3.18654e-11
3.60571e-13
-2.12958e-11
-2.10572e-11
5.47662e-11
2.69601e-12
2.03908e-11
1.29017e-12
-1.67343e-12
6.54812e-11
-6.00394e-12
-7.31065e-13
9.82902e-12
-3.07612e-11
-4.31374e-13
-1.28723e-12
-3.31145e-11
-4.57925e-11
-7.4272e-12
4.77944e-14
-1.20558e-12
1.69547e-11
1.4891e-13
-2.88815e-13
-1.83207e-13
-1.63148e-12
-3.67151e-13
-6.75247e-14
6.59698e-13
-1.78971e-11
6.57213e-13
-1.96589e-11
-2.97787e-13
6.79229e-13
-2.30338e-14
-2.04199e-13
9.8125e-14
-1.94966e-13
-1.34991e-11
1.53621e-11
-1.40557e-13
-1.29578e-13
-3.54129e-13
-5.96202e-13
-3.42986e-13
-3.4562e-11
-4.12877e-11
0
1.90092e-11
-7.98945e-12
5.97323e-13
7.30895e-13
-5.4033e-13
3.99338e-11
6.13985e-13
-1.03146e-13
-5.89841e-13
5.90948e-13
7.06675e-12
-7.12006e-11
2.7444e-13
-4.41652e-13
-1.8389e-12
-3.3664e-11
3.53242e-11
3.15935e-11
4.63906e-12
-8.26839e-13
1.75693e-12
-7.0445e-11
4.54774e-11
1.64846e-11
-1.35836e-14
-3.7512e-11
1.18188e-12
-3.15018e-11
-3.86991e-12
-1.41064e-13
1.95919e-11
0
-3.82167e-11
1.12402e-13
1.84933e-12
5.10006e-13
-4.04032e-12
-9.99461e-12
1.825e-13
-5.40811e-14
-2.68862e-12
-3.69567e-13
1.05427e-12
-6.8638e-12
4.64253e-11
2.07661e-11
4.86825e-14
-3.58664e-11
2.02411e-11
-4.4673e-13
-3.6702e-14
-2.22985e-11
-2.00144e-11
6.55245e-12
-1.59109e-11
1.27295e-12
-5.20942e-13
2.19062e-13
-1.96594e-11
7.4452e-13
-7.30244e-14
-1.67561e-13
-1.4242e-13
-1.36345e-13
-2.39863e-13
-2.36247e-13
-3.55607e-13
3.14814e-11
8.04306e-12
-1.73583e-11
1.19218e-12
-3.06943e-13
2.63561e-12
0
0
-1.93008e-11
8.3558e-12
2.98561e-13
4.65163e-13
-3.91139e-12
-1.02035e-12
1.22995e-12
6.57287e-11
7.71973e-11
-5.90359e-13
5.88382e-13
-1.22315e-12
2.53832e-12
1.43736e-11
-1.88455e-11
7.67134e-11
1.38291e-12
-3.1431e-11
5.79561e-14
-1.49757e-11
1.17118e-12
5.89295e-13
3.36903e-13
-5.63965e-13
-5.15094e-13
6.79858e-11
6.19866e-11
-8.0447e-14
7.30283e-13
-2.77377e-13
-4.26908e-11
5.29442e-12
3.4141e-11
-1.06539e-13
4.84597e-14
3.62157e-11
-8.67515e-11
1.80251e-11
1.10818e-13
6.50727e-13
1.19453e-12
1.52886e-11
8.51614e-13
4.1465e-11
-2.13914e-12
2.13505e-11
-2.68173e-11
7.62139e-11
1.94154e-13
2.7844e-13
1.84244e-11
1.36342e-13
-1.34805e-11
1.72519e-14
3.09971e-13
-3.20445e-13
1.28775e-11
-1.94018e-14
1.98105e-11
4.46798e-13
-2.15593e-13
-4.54987e-13
2.01375e-13
-1.2205e-13
1.43108e-13
1.21013e-13
-6.58452e-12
-1.17977e-13
-5.9783e-12
1.56945e-11
2.98015e-11
-1.49377e-12
-1.46644e-12
5.87719e-13
0
-2.93392e-13
-1.47122e-12
8.95401e-13
-3.33873e-13
3.23675e-14
1.21437e-13
-6.10411e-13
4.75763e-11
-7.62179e-11
-5.91663e-13
-6.49167e-11
-8.03395e-11
-4.02879e-12
5.8806e-13
3.78914e-11
-4.31089e-11
-7.83333e-11
4.08192e-11
1.74435e-11
-5.07085e-13
-1.46921e-12
-1.7725e-12
-2.88011e-11
-3.43196e-14
-6.88371e-13
-2.85281e-11
1.18331e-12
3.32033e-11
2.80544e-11
-5.72305e-13
4.22461e-11
-1.1802e-12
9.47463e-13
-6.37563e-13
1.65731e-11
-3.62094e-11
5.56187e-11
2.77352e-11
-3.02316e-13
1.34596e-13
-5.96863e-13
-1.31677e-11
4.07983e-11
4.80216e-11
-6.69073e-14
-3.49095e-11
2.66724e-11
-3.82142e-11
2.83191e-13
-5.76403e-13
-1.70426e-11
-1.37385e-11
-4.61156e-13
1.41918e-11
1.57888e-11
-6.82461e-13
7.55466e-13
6.07687e-13
2.05597e-11
1.48953e-13
6.05093e-13
7.88236e-13
1.0069e-13
1.30228e-13
4.01621e-13
-1.33801e-11
1.40223e-11
-1.81237e-11
3.17312e-13
4.28068e-11
-3.10098e-11
8.0407e-13
-5.8696e-13
2.93901e-13
-3.17692e-11
2.93462e-13
3.94364e-13
-1.19487e-12
-3.94918e-13
3.7964e-12
-3.81856e-13
-6.13792e-13
-4.94452e-13
5.70458e-11
-1.35868e-12
-5.68278e-11
-1.58628e-11
1.34233e-11
9.13184e-13
1.55187e-13
5.86881e-13
1.53329e-12
-8.17e-11
1.69372e-13
-5.85036e-14
-8.81652e-13
5.33127e-11
5.92787e-11
3.3804e-13
-1.66071e-11
-3.23563e-12
6.96816e-13
-3.30615e-11
6.62629e-12
-1.97899e-13
5.86907e-13
-3.06652e-12
1.14723e-13
-2.96573e-13
-1.63606e-11
6.5845e-12
-1.42182e-10
2.66642e-13
-2.35897e-11
-7.30423e-13
-2.62878e-11
-1.08601e-11
-7.23345e-11
-1.06426e-11
3.97873e-11
8.71906e-13
2.79986e-13
3.76768e-11
-2.00545e-11
1.48979e-13
-1.84647e-11
-1.00207e-13
-6.57553e-12
-5.37143e-13
1.43767e-14
1.05784e-13
-1.30856e-11
-1.92417e-13
3.36853e-13
-5.95802e-13
2.62293e-13
1.52095e-11
-1.4313e-11
-3.48155e-13
-1.39372e-11
-1.21598e-13
6.87482e-12
5.86409e-14
5.79058e-12
-1.56381e-11
-2.98181e-13
-6.30447e-13
-3.83705e-11
0
3.1067e-11
5.84942e-13
-4.50635e-11
3.67367e-11
1.10672e-12
2.02423e-13
1.09162e-13
6.13609e-13
3.89859e-12
0
-3.53873e-12
-7.40655e-11
1.18895e-12
3.63968e-11
1.49833e-11
-2.24907e-11
2.92867e-11
-9.20364e-13
4.52878e-12
-2.39056e-13
9.13415e-13
0
-1.17751e-12
-3.05947e-11
2.04777e-13
5.55778e-13
3.22381e-12
1.17957e-12
8.12731e-13
-2.32299e-11
-1.66869e-11
-5.84914e-13
-5.58424e-11
6.28765e-13
-2.17896e-11
6.7784e-13
-5.81621e-12
-9.88159e-14
-3.12284e-11
-1.3816e-11
1.09438e-13
-4.48012e-12
7.95463e-13
3.08747e-11
-3.85291e-11
-7.94382e-11
-9.24399e-12
-1.42924e-12
-8.4689e-11
-2.50958e-13
2.97938e-13
1.6566e-11
1.37221e-11
2.7447e-13
2.05102e-11
-6.64679e-13
6.85578e-12
2.03328e-11
-2.59612e-13
-3.88352e-14
-1.47474e-11
1.74971e-13
-7.61856e-13
-5.41023e-13
-5.26176e-14
1.60139e-11
1.35809e-11
-1.41998e-11
-1.8558e-13
-1.29651e-13
-4.27088e-11
1.49084e-12
-3.50346e-13
3.80754e-11
0
-3.04808e-11
-2.86604e-11
8.29488e-11
-7.76561e-12
2.23753e-11
-3.44296e-13
1.51901e-12
-2.45416e-12
-1.5112e-13
-4.2586e-13
-3.5453e-12
5.88759e-13
-7.82493e-11
-3.55318e-11
-6.17079e-13
1.60779e-11
-6.85282e-11
1.30742e-12
3.65724e-11
3.47172e-13
7.1761e-13
4.15807e-11
-3.58676e-12
9.6804e-13
7.84892e-14
1.69238e-11
-8.79206e-13
-5.31791e-11
-5.08518e-13
6.8018e-12
8.81485e-14
4.06472e-11
5.88729e-13
9.41628e-14
1.62552e-13
1.67093e-11
-1.56317e-13
-7.57228e-11
6.76156e-11
4.23621e-11
-5.07014e-14
3.0767e-11
-3.75946e-12
6.76012e-13
4.08188e-11
3.95572e-11
-3.23151e-11
1.73831e-12
4.70241e-11
4.68903e-11
0
-1.13403e-13
-6.20384e-12
2.09231e-11
1.36773e-11
3.606e-14
-2.42388e-13
2.71649e-13
-1.57165e-11
0
2.98043e-13
6.90669e-12
-1.51977e-11
1.38364e-11
2.35297e-13
1.34902e-11
1.2865e-13
1.49374e-15
1.68075e-13
-1.66908e-11
3.96876e-13
-2.9821e-13
-3.21085e-13
2.92764e-13
-2.92877e-13
3.107e-11
2.86619e-11
-3.91293e-11
-2.83751e-11
-8.39605e-13
1.49463e-11
-1.15472e-12
0
1.65992e-12
1.38731e-10
5.90946e-13
-1.17769e-12
-2.1541e-12
1.65722e-12
-1.52779e-11
3.423e-13
3.98115e-11
-1.72087e-12
-4.81113e-13
-8.47417e-14
2.04609e-11
-3.86561e-11
-7.97366e-13
-1.4318e-12
1.86618e-11
-1.24315e-13
2.93096e-13
2.36375e-12
3.56149e-11
-1.08596e-12
-3.67264e-12
-4.03574e-11
7.83073e-11
1.28364e-12
5.56115e-12
-7.45847e-14
3.59901e-11
7.66155e-11
-3.64399e-11
1.67449e-11
9.83645e-13
0
3.47266e-11
-7.31841e-13
-4.056e-11
-2.00847e-12
4.05383e-11
-1.81713e-12
6.02849e-13
3.0868e-11
1.49017e-13
4.4945e-13
-1.39823e-11
-7.8425e-13
-2.00281e-11
8.23214e-13
-6.56425e-12
-1.96193e-11
8.80582e-14
6.35138e-13
1.4317e-11
-6.45673e-13
-1.26716e-13
2.84032e-13
-1.82749e-13
-1.61288e-11
1.87796e-13
4.07952e-14
-1.46395e-13
-2.04504e-11
1.70764e-11
-2.80417e-11
3.51987e-11
-2.92751e-13
-3.04567e-11
-1.17229e-12
5.84882e-13
-6.23269e-13
-2.98835e-13
-4.01515e-11
2.11927e-14
2.4109e-13
-6.13689e-13
6.54323e-11
1.50026e-13
0
1.76573e-12
-1.29496e-12
-1.42728e-12
-3.63214e-14
-2.94873e-11
0
-1.28135e-10
-3.19426e-13
-6.49107e-13
-1.61987e-12
2.66462e-11
7.72404e-11
-7.86045e-12
-3.43669e-13
1.15325e-13
0
7.02922e-11
-3.60389e-11
-1.33109e-11
1.03768e-13
0
1.76569e-12
-6.0093e-13
8.58112e-13
4.65513e-13
-3.5823e-11
-1.46553e-13
4.99511e-13
-1.89529e-11
-1.59953e-11
-2.98826e-13
-1.05286e-11
-8.93561e-14
2.78952e-11
-3.852e-11
-3.71373e-11
-2.26665e-13
-3.31464e-12
-2.75377e-11
1.35504e-11
3.58083e-13
6.05869e-12
1.60467e-11
-1.28657e-11
-9.06546e-15
-3.12588e-13
2.27008e-13
3.24658e-11
1.10182e-13
0
-7.25824e-12
1.48118e-11
9.20798e-13
1.37105e-13
3.4306e-15
-1.97229e-11
-4.32701e-13
1.81166e-13
1.64377e-11
3.60372e-14
4.12022e-11
-3.53429e-11
3.49096e-11
3.08305e-11
-5.87659e-13
-5.86412e-13
9.61825e-13
-2.98995e-13
-2.01957e-13
-1.48762e-11
9.14334e-14
3.06436e-12
8.92333e-11
-5.87545e-13
7.59068e-11
7.62565e-11
5.54899e-11
-2.36143e-11
1.44107e-11
-1.44616e-11
-8.80193e-13
-5.47763e-11
-4.54983e-11
3.87008e-13
-2.1077e-11
-6.10679e-11
6.16864e-11
7.34351e-12
-1.83594e-11
-2.5209e-11
5.87665e-13
-1.17684e-12
-4.37195e-11
1.66358e-11
2.10967e-11
7.91676e-12
2.63965e-11
-3.76421e-13
1.68253e-11
-9.49155e-13
-3.59904e-13
1.33399e-13
2.62097e-13
-3.3127e-12
-1.90878e-11
2.98972e-13
2.03373e-11
4.54726e-11
-2.8192e-11
4.06879e-11
3.78435e-11
4.32981e-11
3.40394e-11
-4.75735e-11
1.94593e-14
3.60975e-13
-1.29424e-12
-4.86774e-13
-5.71672e-15
-1.3843e-13
2.1838e-13
-7.2073e-13
9.6653e-13
-7.46461e-13
-1.40273e-11
-2.62931e-11
-2.00487e-11
-8.24972e-14
-2.24813e-13
1.27542e-13
5.21576e-13
1.7151e-11
2.58732e-13
2.08895e-11
-1.5309e-14
-1.374e-11
-3.76449e-11
-3.38486e-11
2.85803e-11
8.93643e-13
8.91953e-13
-5.94261e-13
1.49546e-12
3.6976e-12
-9.22876e-15
-6.33854e-13
1.22409e-12
-6.95532e-11
-1.25374e-11
6.19302e-11
6.29261e-11
-1.60907e-10
2.15695e-11
1.42231e-11
1.33884e-11
5.93939e-13
-2.42764e-11
4.56246e-11
-5.77474e-13
1.65824e-12
3.03687e-11
6.48351e-11
3.00609e-13
1.82108e-11
5.25282e-13
2.9794e-13
8.19507e-11
9.02573e-12
3.80592e-13
5.02358e-13
-7.43422e-12
5.51699e-13
-4.22744e-11
-1.59224e-14
1.91639e-12
-1.18867e-12
-9.02439e-11
1.84402e-13
1.84765e-12
1.51186e-11
5.98091e-13
-5.88357e-11
-4.61551e-11
-4.04198e-11
4.06187e-11
1.28925e-11
-1.45621e-11
-3.1955e-11
-1.80823e-14
-1.40236e-11
-1.45435e-13
7.26518e-16
-1.65156e-11
1.4166e-11
-4.49204e-13
1.45396e-11
-5.60818e-13
-1.69873e-11
0
0
7.64048e-14
-1.88779e-11
2.50256e-14
-4.44862e-12
-1.85633e-11
1.95826e-11
1.93198e-11
1.45288e-11
1.6505e-11
9.33528e-13
-3.09545e-11
8.63732e-11
-1.0158e-12
-2.87726e-11
2.64115e-11
-8.89401e-13
-7.41021e-12
-3.42043e-11
-1.77572e-11
4.35373e-14
5.94406e-13
1.24802e-11
-1.17873e-12
-3.54552e-12
0
1.47581e-13
-8.34955e-11
3.2337e-12
-1.43733e-11
1.48748e-11
-4.40505e-13
-2.99635e-13
8.02509e-13
4.4465e-13
-1.04354e-11
-1.69123e-11
5.71361e-13
-4.18213e-13
-1.70331e-11
2.96075e-13
1.91604e-12
-5.91114e-13
-9.6048e-12
3.34746e-11
-1.04104e-11
2.06788e-12
0
-7.41366e-12
1.6758e-13
7.10288e-12
-1.42473e-11
-1.1345e-11
-1.01524e-12
-5.316e-13
9.70616e-12
-1.69944e-12
0
3.5506e-11
-1.67917e-11
6.65145e-13
-5.93058e-13
-5.30655e-11
3.99014e-11
-3.92224e-11
2.26457e-11
-1.98298e-11
5.76854e-13
4.14687e-11
-2.31418e-13
1.80878e-11
5.92908e-13
1.70541e-11
3.42397e-12
-9.30456e-11
-1.16408e-12
1.74496e-12
6.75711e-11
-2.22066e-13
1.01065e-12
1.90548e-11
1.48713e-12
5.14001e-11
-1.54532e-13
3.99715e-11
-4.03403e-11
-1.39237e-11
-3.10503e-11
0
1.77051e-11
-1.83273e-11
2.85766e-14
1.14917e-11
-1.24535e-13
1.63412e-11
6.92499e-14
2.33639e-13
-1.38284e-12
-1.98681e-11
2.0843e-12
1.57379e-11
2.67077e-11
2.01511e-11
-3.70046e-12
-9.88258e-14
1.47987e-13
-5.92067e-13
-1.74183e-11
7.6087e-13
1.05807e-12
0
5.81217e-12
-2.24113e-11
9.22746e-14
-5.90751e-13
1.44003e-12
-3.33295e-12
6.79785e-12
-7.20116e-12
1.43905e-11
6.37132e-12
3.08344e-13
-8.84047e-13
-3.24196e-11
0
-8.5698e-13
-2.93793e-13
5.87926e-13
1.46249e-13
-1.43703e-11
-1.53937e-11
8.71507e-12
2.93731e-13
0
-3.59996e-11
3.76055e-11
2.94435e-11
-1.46492e-12
5.24821e-13
2.95991e-13
-1.4798e-13
-2.03702e-11
2.92005e-13
9.50262e-12
-4.36669e-12
1.12575e-13
-4.16629e-12
1.91183e-13
-1.22434e-11
-1.79036e-11
-2.95962e-13
2.85211e-12
3.23804e-11
6.57494e-12
4.8589e-12
-9.97161e-12
-1.9234e-12
1.37216e-12
1.2753e-11
1.47966e-13
-4.44056e-13
2.17233e-12
4.35176e-11
-1.13225e-11
3.7191e-11
0
-9.45222e-13
-8.36789e-13
3.76592e-13
-4.44021e-13
1.27215e-11
2.95586e-13
2.89992e-11
-5.86546e-13
2.52055e-13
-6.04458e-13
6.61898e-11
-4.13188e-11
-2.94933e-13
-1.55639e-12
-2.96747e-13
-9.59996e-12
-8.8635e-13
2.06745e-11
2.94883e-13
-1.78437e-11
3.22299e-11
-5.9971e-12
-7.06181e-12
4.45155e-13
3.15774e-13
-1.29392e-13
-3.48886e-13
0
-1.40143e-11
5.919e-13
-1.37639e-11
1.48151e-13
-2.96721e-13
2.96927e-13
-1.48202e-13
2.96244e-13
1.74653e-11
1.47935e-13
4.88148e-12
1.83416e-11
0
-3.38973e-11
-1.52566e-11
-1.70426e-11
-1.18496e-12
-1.79055e-11
1.96596e-11
1.41826e-11
-1.17439e-11
-1.7436e-11
2.65922e-11
6.4278e-12
2.4712e-11
1.74772e-11
-1.42086e-11
0
-6.23334e-12
-7.00725e-12
1.47659e-13
7.82623e-12
-4.42581e-13
-7.70863e-12
-1.37456e-11
0
-1.42006e-11
-2.95463e-13
-2.02816e-12
-1.296e-11
-1.43594e-11
-1.48775e-11
-4.65372e-12
-2.29417e-11
-1.47739e-13
1.71586e-11
5.91588e-13
-1.46262e-11
-1.04388e-11
0
1.91346e-11
2.55109e-11
6.06949e-12
5.46393e-12
-4.43309e-13
1.1832e-12
1.83392e-11
-1.47734e-13
-1.14701e-11
-1.8779e-11
-1.42407e-11
7.41631e-13
-4.18194e-12
-3.02724e-12
-1.68458e-11
2.95807e-13
2.9585e-13
-3.82562e-11
-1.64742e-11
2.28786e-11
7.18223e-12
-1.9136e-11
-9.71391e-12
1.12119e-11
-1.52161e-11
0
-1.73176e-11
4.91289e-12
4.90444e-12
-6.15662e-12
-4.28242e-12
-2.21514e-12
-6.97122e-12
6.7497e-12
-4.02656e-12
1.495e-11
2.96229e-13
-1.87929e-11
-1.22636e-11
-1.40325e-11
1.93885e-11
1.89133e-11
-1.47743e-13
1.96579e-11
2.16046e-11
-4.44366e-13
1.82271e-11
0
2.66411e-12
-1.47926e-13
-1.64186e-11
-1.61218e-11
-8.87535e-13
-1.68353e-11
4.1806e-11
-2.07477e-12
1.31766e-11
-5.9202e-13
1.47947e-13
4.28929e-12
-7.39478e-13
-1.47896e-13
1.4791e-13
-4.43855e-13
-5.92028e-13
-1.33246e-12
-1.83523e-11
-1.93796e-11
7.39324e-13
1.47831e-13
0
-1.71492e-11
1.47835e-13
1.47871e-13
1.46459e-11
0
-2.13034e-11
-1.5821e-11
-2.95575e-13
-1.31525e-11
-1.37476e-11
-3.25219e-11
1.47788e-13
3.26623e-11
1.47862e-13
0
1.41978e-11
-1.46339e-11
-1.47768e-13
3.69551e-12
4.43772e-13
-2.15976e-11
0
4.43368e-13
-1.47829e-13
1.03529e-12
-1.81887e-11
2.08413e-11
-5.9116e-13
-2.95797e-13
-1.90989e-11
2.96117e-13
-1.4793e-13
-1.5522e-11
3.29668e-11
4.43658e-12
-1.47875e-13
1.75892e-11
1.80298e-11
2.95791e-13
1.48054e-13
0
1.34617e-11
-4.43485e-13
0
1.40494e-11
1.47893e-13
1.4781e-13
3.76759e-11
-1.47804e-13
0
-2.95862e-13
-1.44885e-11
-1.47787e-13
1.83312e-11
0
-1.47939e-11
-1.47854e-13
1.47768e-13
0
-1.95124e-11
-1.33045e-12
2.17251e-11
-7.38965e-13
-7.39345e-13
-2.95898e-13
0
1.47931e-13
-5.91425e-13
-1.62605e-11
1.47833e-13
1.47834e-13
-2.2618e-11
-4.43589e-13
-1.47938e-11
-4.44018e-13
0
4.4399e-13
4.43817e-13
1.47899e-13
-1.47888e-13
-1.83187e-14
3.23532e-12
-3.71919e-14
1.11035e-13
2.96102e-13
1.28734e-11
5.91782e-13
-1.39041e-11
1.47896e-13
1.331e-12
-5.91561e-13
0
1.4792e-11
8.87693e-13
1.47972e-13
-2.95886e-13
0
7.39417e-13
-1.38997e-11
1.55265e-11
-6.95003e-12
-7.54157e-12
-4.43667e-13
-4.43754e-13
0
1.46431e-11
-1.03515e-12
2.95708e-13
-1.41942e-11
-2.9575e-13
-1.81889e-11
-1.47863e-11
1.36033e-11
1.34576e-11
2.95828e-13
1.43448e-11
7.39291e-13
-2.95695e-13
1.83366e-11
1.36085e-11
3.99391e-12
4.58454e-12
1.81871e-11
-7.3935e-13
-7.39462e-13
-5.91491e-13
1.44896e-11
1.50813e-11
2.95813e-13
-3.53644e-11
-2.55994e-11
4.43772e-13
7.3939e-13
-4.43611e-13
-1.47885e-12
1.47872e-13
0
-2.95707e-13
4.43713e-13
0
-1.03582e-12
-2.95848e-13
-1.55272e-11
0
1.89294e-11
-1.47882e-13
1.90732e-11
1.49318e-11
1.47869e-13
2.05603e-11
1.92299e-11
3.80073e-11
-5.9145e-13
1.53787e-11
2.95791e-13
1.47907e-13
0
-2.95691e-13
1.80375e-11
-4.43613e-13
-2.0259e-11
-1.47862e-13
0
0
-1.50876e-11
-1.47939e-13
1.89323e-11
1.73016e-11
5.91452e-13
-2.01099e-11
-1.62656e-12
-5.9148e-13
1.47885e-13
-7.39588e-13
-3.69869e-12
1.47964e-13
0
1.4791e-12
-1.47889e-13
0
1.61378e-11
1.34941e-12
1.80456e-11
-2.27836e-11
-2.95943e-13
-1.92298e-12
1.03536e-12
1.47892e-13
-2.95763e-13
2.21818e-12
2.9576e-13
-2.9577e-13
5.91586e-13
0
1.47926e-13
1.90798e-11
1.98175e-11
-8.87275e-13
-7.39376e-13
1.55272e-11
1.03516e-11
-8.87279e-13
1.47885e-13
-1.46419e-11
2.95821e-13
1.43449e-11
1.49354e-11
-4.43609e-13
-8.87267e-13
1.3606e-11
-4.88048e-12
-1.50842e-11
-1.87806e-11
-4.4365e-13
2.95786e-13
2.07019e-12
4.43596e-13
-2.95742e-13
-1.47895e-13
1.99694e-11
2.14491e-11
1.47905e-13
-2.95768e-13
-8.87265e-13
-7.39405e-13
1.80393e-11
-4.43588e-13
7.39387e-13
2.95827e-13
1.33154e-12
-2.95908e-13
4.43779e-13
1.55289e-11
-1.37527e-11
-4.28842e-12
0
-1.80391e-11