/*--------------------------------*- C++ -*----------------------------------*\
  =========                 |
  \\      /  F ield         | OpenFOAM: The Open Source CFD Toolbox
   \\    /   O peration     | Website:  https://openfoam.org
    \\  /    A nd           | Version:  10
     \\/     M anipulation  |
\*---------------------------------------------------------------------------*/
FoamFile
{
    format      ascii;
    class       volScalarField;
    location    "0.6";
    object      gradTx;
}
// * * * * * * * * * * * * * * * * * * * * * * * * * * * * * * * * * * * * * //

dimensions      [0 -1 0 1 0 0 0];

internalField   nonuniform List<scalar> 
47104
(
1.3959e-13
-6.19299e-15
5.86824e-13
5.51545e-13
-1.94693e-13
1.55231e-13
2.56637e-13
5.25537e-14
-2.57264e-15
-1.39584e-13
9.32208e-15
-9.24761e-14
1.69536e-13
-5.16766e-13
1.36972e-14
1.54521e-11
2.63544e-13
-1.47256e-11
-1.16849e-11
-1.13377e-11
-1.39536e-13
9.21406e-14
5.2886e-12
1.93937e-14
-5.90722e-12
1.54343e-13
6.47148e-13
2.23745e-13
6.41274e-13
2.88441e-13
-1.01207e-11
-1.05066e-11
-6.4076e-13
1.17252e-13
-1.12019e-13
9.59819e-14
-5.54172e-13
-1.20933e-13
7.51975e-13
1.57889e-13
1.4855e-13
5.42096e-14
-2.95425e-14
-1.50007e-13
-1.59357e-14
-2.25298e-13
3.5623e-14
-1.49982e-13
1.7877e-13
0
0
8.5555e-13
1.64541e-13
-8.74391e-14
1.3044e-13
3.43714e-12
1.53067e-13
7.17722e-12
-3.60701e-13
-1.12894e-11
1.0252e-11
4.10419e-13
-1.03711e-11
4.04964e-13
-5.40089e-13
6.67922e-15
4.82651e-13
2.90181e-12
-1.71018e-13
-2.8161e-12
4.56183e-13
-2.05149e-13
-4.57483e-13
-1.51374e-11
5.5779e-14
1.52706e-11
-1.40107e-13
-4.32018e-14
7.04264e-13
7.35228e-13
-1.39766e-13
1.77612e-13
5.56994e-13
-1.59196e-13
-5.49235e-13
1.03655e-13
1.18915e-11
-4.45499e-14
4.00275e-13
1.22141e-11
1.39609e-13
4.66196e-13
-1.21779e-13
-3.50837e-13
-1.1636e-11
1.55136e-13
1.08349e-11
-1.06209e-11
4.56407e-13
1.05952e-11
-1.49214e-13
-2.17131e-13
-2.76831e-12
8.33572e-14
2.82477e-12
-2.09818e-14
1.05799e-13
-2.00895e-13
9.96113e-14
4.47613e-13
-1.49336e-13
-1.92179e-11
-9.73649e-12
1.95039e-11
9.69589e-12
1.56313e-11
1.04558e-11
-2.83961e-11
-1.06497e-11
1.26928e-11
1.00035e-11
1.42153e-11
-8.88913e-12
1.16772e-12
-3.50106e-13
-2.45593e-11
4.73669e-11
-2.28099e-11
0
1.493e-13
1.49207e-13
-4.89739e-12
6.95034e-15
4.57472e-15
-3.04135e-11
3.045e-11
-3.18502e-14
-1.96842e-11
-1.22246e-11
-4.47603e-13
-1.49167e-13
4.3749e-12
2.1768e-12
-2.34314e-12
2.65021e-13
-1.99439e-11
2.00316e-11
-6.41436e-13
-1.27131e-11
-1.25294e-11
1.04423e-11
1.11807e-11
5.59002e-13
6.53321e-13
1.03039e-11
-1.04168e-11
2.76571e-11
-2.73452e-11
-1.54803e-11
3.2816e-12
2.58172e-11
1.57033e-12
-1.88792e-11
-2.21675e-11
2.27437e-11
4.21874e-14
8.58355e-14
2.87186e-11
-2.3927e-12
2.34267e-11
0
-2.61892e-13
3.15504e-11
-3.10403e-11
5.03974e-13
9.52966e-14
-1.40128e-12
2.58775e-13
4.75108e-12
0
1.07536e-11
9.88446e-12
-1.09533e-11
-9.65381e-12
-6.41785e-13
-1.84527e-13
-6.44251e-13
4.59705e-13
-9.70906e-12
-1.06034e-11
-1.4921e-13
1.6074e-13
-4.54105e-13
4.39411e-13
-1.62023e-11
-1.11792e-11
1.6359e-11
1.088e-11
-2.29462e-13
-2.98422e-13
1.49189e-13
1.3625e-11
1.04415e-11
-1.37985e-11
-1.00953e-11
-6.37209e-14
-1.48531e-13
1.49571e-13
-1.52329e-13
0
7.46265e-12
-1.85221e-11
5.66661e-12
-2.61072e-11
2.66753e-11
-5.92946e-13
-4.15143e-13
5.19459e-13
1.77182e-13
-8.6559e-12
1.17792e-11
6.8131e-12
9.2174e-13
-9.50743e-13
1.91449e-13
-6.78649e-13
8.79756e-13
9.45481e-15
6.38232e-13
4.92019e-12
-7.59791e-12
2.77769e-11
7.9605e-11
-1.52269e-07
-1.2257e-08
2.80596e-09
3.62564e-08
1.04689e-08
-4.50645e-13
-4.02228e-12
-2.98048e-13
3.61196e-13
1.64971e-10
-2.03248e-07
2.7725e-08
-6.27546e-09
-7.71922e-08
1.55007e-08
-3.19328e-11
0
2.98074e-13
1.13052e-13
1.7227e-10
-2.08517e-07
2.94174e-08
-6.68352e-09
-8.08175e-08
1.58263e-08
2.57643e-13
-4.32164e-12
-4.91755e-12
9.63038e-12
1.9531e-10
-1.78033e-07
2.19343e-08
-4.89567e-09
-6.34128e-08
1.46702e-08
-9.25882e-14
0
-4.02726e-12
7.16366e-12
-1.27141e-11
-4.08807e-09
-7.85677e-10
1.74029e-10
2.20742e-09
-4.85306e-10
3.11818e-11
-4.47381e-13
1.49293e-13
1.90947e-11
-1.82017e-11
-3.07397e-11
2.94656e-11
1.48395e-11
-1.43664e-11
-3.53468e-13
-5.85385e-13
8.50858e-12
-1.26807e-11
1.47582e-11
1.26131e-11
-1.51629e-11
4.52116e-13
-6.65756e-13
-4.1339e-14
3.05727e-13
1.43022e-13
0
-1.11637e-11
-9.71001e-12
-7.29679e-14
-1.50298e-12
-1.55028e-11
-2.90718e-13
1.89292e-11
-1.2977e-14
-3.35955e-12
-1.48823e-13
1.48615e-13
4.46779e-14
-7.99336e-12
-3.57311e-11
-9.7561e-12
5.63139e-12
1.9408e-11
3.72978e-11
-9.04302e-13
-9.3614e-12
4.42901e-13
1.85908e-11
-3.42967e-09
-1.70001e-07
-8.37632e-10
1.17594e-09
8.40373e-09
4.16846e-07
9.15065e-08
5.31454e-12
-6.45434e-12
8.36169e-09
4.09246e-05
-0.808854
-0.00515583
0.000326542
0.0139043
0.646687
1.99991e-06
-1.39351e-11
-1.46495e-12
8.03619e-09
4.22146e-05
-1.2431
-0.0174987
0.00103778
0.049592
0.838218
1.76374e-06
-1.46488e-13
1.08418e-11
7.99533e-09
4.2488e-05
-1.24946
-0.018241
0.00108953
0.0509222
0.841314
1.7519e-06
6.88515e-12
3.37488e-12
8.18914e-09
4.19375e-05
-1.23382
-0.016626
0.000979405
0.0477247
0.83213
1.80618e-06
4.40102e-12
-1.40308e-11
5.58023e-09
4.21247e-05
0.140666
-0.00833626
-0.00930851
-0.0100633
-0.146172
9.6057e-07
4.57736e-12
1.48658e-13
4.93963e-13
5.72671e-09
1.36789e-08
4.77541e-10
-1.18282e-10
-2.37312e-09
-2.11121e-08
-3.69781e-11
3.71597e-12
-5.95366e-13
1.22407e-11
2.47655e-13
-1.14918e-12
1.69187e-13
-1.11318e-11
-8.1929e-14
1.36649e-11
1.61576e-13
-1.33965e-11
-7.43326e-13
-2.85815e-13
2.75814e-13
1.49975e-13
2.59006e-13
2.91097e-14
-1.16017e-11
5.39034e-13
1.14217e-11
0
2.16651e-11
1.69827e-11
5.9017e-13
1.18283e-09
5.77074e-10
-9.72498e-11
-1.46782e-09
6.68896e-11
2.1078e-11
-3.85748e-12
1.95412e-11
-2.96958e-10
-1.75346e-06
0.0196284
0.000516106
0.000119504
-0.000832637
0.000882535
5.9633e-07
-2.13034e-11
-1.62562e-11
-8.65765e-08
-0.710721
0.000501133
1.42237e-11
-2.38544e-11
-2.08905e-07
-0.863648
0.000651109
2.70331e-11
-2.6027e-11
-2.00529e-07
-0.865243
0.000652534
4.92969e-11
-2.5268e-11
-2.23758e-07
-0.861025
0.000645462
1.77082e-11
4.85092e-12
7.51252e-09
0.0177532
-4.06418e-05
8.66961e-12
-4.00745e-12
1.73616e-14
2.00362e-08
8.74836e-06
6.66368e-07
-1.3841e-07
-3.28647e-06
1.50475e-06
3.47587e-10
-3.85874e-12
-1.4865e-13
5.93262e-13
1.26818e-13
-1.12056e-11
-5.10324e-14
2.66969e-11
-8.07424e-14
-2.63369e-12
4.45636e-15
-1.39748e-11
2.23059e-12
-2.41975e-15
-2.10749e-12
-6.65694e-14
1.48275e-13
-1.43164e-13
-1.77565e-14
-4.81326e-13
2.0519e-13
4.46039e-13
9.95222e-12
4.97426e-11
-2.52369e-11
1.01754e-09
7.8603e-10
-1.16317e-10
-2.00146e-09
1.3374e-10
3.21084e-12
-4.60386e-12
-4.55816e-12
-3.38348e-10
-1.85756e-06
0.0244439
0.00065464
9.37301e-05
-0.00122364
0.000978785
6.20671e-07
1.95542e-11
-1.4939e-11
-6.06271e-08
-0.730637
0.000514788
8.70146e-13
-2.62683e-11
-2.2251e-07
-0.901528
0.000719752
2.45336e-11
-1.81885e-11
-2.11634e-07
-0.903768
0.000722207
1.905e-11
-2.06076e-11
-2.19197e-07
-0.895175
0.000708569
3.35022e-11
-1.47113e-11
2.72236e-09
-0.0207037
-4.31185e-05
-3.08792e-12
-1.29248e-11
-1.29574e-11
2.10524e-08
1.0252e-05
9.36e-07
-2.05072e-07
-5.34136e-06
8.55881e-07
3.06507e-10
8.76501e-12
1.48683e-13
8.15445e-14
1.2443e-11
1.05787e-13
-1.25463e-11
-9.32432e-14
9.4499e-14
1.21159e-11
1.58906e-13
-1.23429e-11
-1.63671e-12
-7.04113e-13
6.50782e-13
-5.86497e-13
1.39068e-13
1.79101e-13
4.6507e-14
-1.24947e-13
1.75737e-13
-1.48767e-13
3.12218e-12
-4.08574e-11
3.83888e-11
8.55172e-10
8.09796e-10
-1.24953e-10
-2.00248e-09
1.29931e-10
-2.86671e-13
1.56071e-11
2.23729e-11
-3.28967e-10
-1.86249e-06
0.0245484
0.000643867
6.47381e-05
-0.00126978
0.000984506
6.23775e-07
-5.29734e-12
-1.75651e-11
-5.28069e-08
-0.731212
0.00051578
1.18992e-11
-2.26725e-11
-2.10804e-07
-0.903103
0.00072246
8.95157e-12
1.15533e-12
-1.97727e-07
-0.905605
0.000725034
2.09355e-11
-7.40537e-12
-2.35386e-07
-0.899756
0.000710977
1.01583e-11
1.47242e-13
6.99733e-09
0.0189588
-4.33094e-05
2.81094e-11
-6.24497e-12
2.48344e-11
2.09843e-08
1.03688e-05
9.72819e-07
-1.74486e-07
-3.99713e-06
1.7438e-06
3.63655e-10
8.02925e-12
-1.42814e-11
-2.39366e-13
2.94132e-12
1.20617e-11
2.34488e-11
-1.20022e-11
-1.56908e-11
1.9029e-13
3.38356e-12
-1.48797e-13
-2.17334e-11
1.52833e-13
2.15371e-11
2.57654e-13
1.28401e-11
-1.09538e-11
-1.22158e-11
1.05551e-11
5.80979e-13
5.9536e-13
2.975e-13
-2.24436e-12
5.95581e-12
8.3509e-10
8.08013e-10
-1.38894e-10
-1.96511e-09
1.07072e-10
6.19004e-14
5.9487e-13
-3.82989e-12
-3.33541e-10
-1.8552e-06
0.0245668
0.000642512
6.08153e-05
-0.00127531
0.000984319
6.21501e-07
5.30033e-12
-1.52573e-11
-1.53331e-07
0.0903109
0.000516012
2.59915e-11
-2.00889e-11
-2.11583e-07
-0.902052
0.000722721
2.23943e-11
-1.89316e-11
-1.97079e-07
-0.905742
0.000725298
1.84937e-11
4.64932e-12
-2.34032e-07
-0.900088
0.000711215
1.53924e-11
5.00919e-12
6.99557e-09
0.0189744
-4.33339e-05
4.41755e-12
-9.52139e-12
-2.5861e-11
2.08952e-08
1.03754e-05
9.73171e-07
-1.8957e-07
-4.31301e-06
1.6968e-06
3.38254e-10
2.97536e-13
0
-1.1722e-11
1.36294e-13
2.42366e-11
1.45324e-13
-1.24898e-11
-2.83232e-13
-3.13525e-14
-4.43094e-15
0
2.38246e-12
-3.44727e-13
-3.05392e-12
-5.03106e-12
-2.25179e-13
4.89151e-12
-2.24422e-13
-1.79436e-13
8.56872e-13
1.48897e-13
-8.33227e-12
7.63931e-14
1.01269e-11
9.46409e-10
7.91073e-10
-1.20307e-10
-2.04555e-09
1.23909e-10
5.72758e-11
-3.57064e-12
-1.09061e-11
5.93062e-11
-1.85551e-06
0.0245116
0.000640533
7.04183e-05
-0.00125391
0.000981704
6.18525e-07
-4.56703e-12
-1.22186e-11
-1.50458e-07
0.163883
0.000515969
1.07578e-11
-2.4461e-11
-2.21245e-07
-0.901452
0.000721022
2.25734e-11
-3.41581e-11
-2.07088e-07
-0.905006
0.000723495
3.63207e-11
-1.87644e-11
-2.41745e-07
-0.89946
0.000709793
1.49744e-11
-2.80095e-12
7.01154e-09
0.01897
-4.32753e-05
-9.4299e-12
4.16718e-12
1.69901e-14
2.08432e-08
1.02691e-05
9.36995e-07
-2.03851e-07
-5.33981e-06
8.52764e-07
3.54268e-10
-1.48823e-13
-1.48892e-13
-3.03624e-14
6.36722e-13
-5.17468e-12
-5.61772e-13
4.77871e-12
-3.09298e-13
2.02049e-13
-4.73197e-13
-2.9785e-13
-1.48928e-13
-5.49479e-14
-1.31531e-11
-2.51577e-13
1.32156e-11
1.01253e-13
-7.68631e-15
1.4743e-11
-1.41604e-13
-1.47449e-11
1.59229e-11
2.00377e-11
3.57372e-12
-2.95641e-11
9.39807e-11
-2.05351e-11
-3.03312e-10
6.64182e-11
2.19198e-11
1.48825e-13
1.88756e-11
-3.04679e-10
-1.83931e-06
0.0207869
0.000500038
6.65687e-05
-0.000940483
0.000942487
6.05662e-07
1.91682e-11
1.92377e-11
-6.9638e-09
-0.718525
0.000437793
1.18018e-11
2.17762e-12
-2.03926e-08
-0.876595
0.000501983
4.35419e-13
2.14875e-11
-9.11209e-09
-0.878559
0.00050255
0
-3.35303e-12
-4.82273e-08
-0.874294
0.000503205
4.07988e-12
-1.53435e-11
5.72127e-09
0.0181712
-3.86731e-05
3.09686e-12
-5.50813e-12
-7.1807e-13
1.85922e-08
7.31257e-06
5.26449e-07
-9.48347e-08
-2.20023e-06
1.36062e-06
3.512e-10
4.466e-13
-1.4893e-13
2.42367e-12
1.4618e-11
-1.93417e-12
-1.47318e-11
-1.70753e-11
-1.47692e-11
1.70391e-11
1.52263e-11
1.48962e-13
-1.48929e-13
-1.83162e-13
1.12742e-11
-4.92227e-13
-9.83875e-13
5.9513e-13
-1.10364e-11
4.76761e-13
9.44358e-13
-4.46866e-13
1.48808e-13
-6.10581e-13
-2.32182e-11
1.99241e-11
-4.66815e-13
2.94465e-13
1.32597e-12
-2.97514e-11
4.94288e-11
-8.33497e-12
-4.57142e-12
-2.27238e-11
-8.14502e-08
1.01348e-06
2.83253e-08
-5.25402e-09
-5.56181e-08
-4.92967e-06
1.37551e-08
-3.39142e-12
1.45742e-13
2.11423e-10
-0.000135857
-4.52449e-07
2.9141e-13
-3.92038e-12
2.47359e-10
-0.00014014
-4.74002e-07
1.33533e-11
1.45216e-13
2.09345e-10
-0.000134876
-4.75504e-07
1.4515e-13
1.63298e-11
2.41868e-10
-0.000140027
-4.6898e-07
-2.30238e-11
0
-7.68332e-11
-0.000124019
-1.31898e-07
5.30928e-12
-4.16885e-12
4.06053e-12
2.4941e-10
-4.33147e-09
-3.35099e-10
7.53351e-11
1.16422e-09
2.26665e-09
-4.70872e-12
-1.48875e-13
4.46835e-13
-5.62407e-13
1.32936e-11
-9.17093e-12
-1.36416e-11
1.01216e-11
-7.57284e-14
-2.82168e-14
6.98085e-14
-1.48971e-13
-5.36095e-12
-1.53537e-11
-1.0285e-11
3.30687e-13
3.86452e-13
-1.04821e-12
-6.48688e-13
1.20035e-13
5.28242e-14
0
-2.61867e-11
-1.73191e-11
2.17411e-11
-2.13237e-11
2.14982e-11
-2.18694e-11
-2.18283e-11
2.23577e-11
5.5732e-13
-3.12523e-12
-1.47353e-13
-2.5276e-11
-2.67931e-11
-5.43948e-11
1.70692e-12
-6.08394e-11
-1.18096e-12
1.43783e-13
3.77746e-11
-2.13649e-11
5.23518e-12
3.35145e-11
-4.48918e-11
-9.43848e-13
0
5.79035e-13
3.00052e-13
-2.0039e-11
-3.6573e-13
0
-4.92232e-12
9.9994e-12
1.01775e-13
4.44039e-11
-7.81533e-12
7.71025e-12
4.17656e-12
-5.71198e-12
-3.64231e-13
-1.39607e-11
1.68087e-11
1.57761e-11
1.43545e-13
9.5048e-13
-2.4024e-11
1.48876e-13
-4.37038e-13
7.19417e-13
-2.04199e-11
2.02272e-11
-2.36816e-11
2.38358e-11
-2.60474e-11
2.73724e-11
9.82431e-12
-1.26598e-11
-1.65638e-11
2.52995e-12
1.69447e-11
1.03338e-11
4.1841e-14
-1.5005e-11
-1.06736e-11
1.50959e-11
1.10229e-11
-1.35501e-11
1.07725e-11
1.3371e-11
-2.35351e-11
-2.4118e-13
3.23229e-12
3.80766e-13
9.59473e-12
-1.59264e-13
2.97875e-13
3.86826e-12
-3.20883e-11
2.44123e-11
1.99273e-12
-1.95626e-12
-3.01734e-11
2.97196e-11
-1.17674e-12
4.08591e-13
-2.23207e-11
1.4729e-13
3.44441e-13
-2.60682e-13
-5.79757e-13
-5.8972e-13
7.48187e-13
1.26364e-12
4.32289e-11
-7.68441e-12
-2.5186e-11
-1.45264e-13
-3.40588e-11
4.72936e-11
3.34265e-12
-1.39441e-11
-2.22595e-11
-2.26678e-11
-4.11776e-14
-3.51546e-11
5.78113e-13
1.44554e-13
-2.53776e-11
3.43084e-11
-1.761e-12
-2.31262e-12
-1.65644e-11
-2.9567e-11
3.14059e-11
-1.18089e-11
-1.99063e-11
1.62091e-12
-1.99381e-11
4.52217e-11
-4.51542e-11
1.47352e-13
1.39916e-11
9.72496e-12
1.17632e-12
7.89819e-12
-7.79803e-14
-2.75882e-11
-2.36084e-12
2.63681e-12
2.71894e-11
-1.72653e-11
2.97845e-13
3.02649e-13
7.74443e-13
3.78181e-13
-1.31352e-12
-6.849e-13
1.31286e-11
-1.37838e-13
-1.31006e-11
8.93643e-13
-5.9558e-13
1.70599e-13
3.14814e-13
-1.25867e-13
-1.44026e-13
1.03647e-11
-1.12331e-11
-1.03051e-11
1.14316e-11
0
1.4877e-13
-2.38324e-14
5.95492e-13
2.32523e-11
-5.22534e-11
2.82972e-11
2.88343e-13
0
2.90412e-13
-7.43998e-13
-5.44917e-12
-6.91274e-13
-1.74299e-11
6.15874e-11
5.13209e-11
-5.85346e-13
-5.65802e-11
1.92185e-12
6.04006e-13
1.47274e-13
1.80091e-11
1.36242e-11
-1.92085e-11
-2.68951e-12
-2.71573e-11
-4.19055e-12
-9.68238e-13
4.59434e-13
1.13575e-11
-1.51719e-11
-7.22565e-13
6.54879e-13
3.25141e-11
5.8731e-13
-1.30052e-12
1.74334e-12
-1.00572e-11
-1.99508e-11
3.14363e-11
-4.06722e-12
2.25418e-11
3.44712e-11
-7.22948e-11
1.13406e-13
7.36594e-12
0
-7.84729e-15
-3.02036e-13
2.02436e-11
1.38375e-11
-3.43304e-11
2.06999e-11
-2.07919e-11
-5.89782e-13
-2.39617e-11
-1.4891e-13
1.65408e-11
1.57562e-11
-3.24907e-11
-1.55425e-11
1.57431e-11
-1.94605e-13
3.127e-13
-1.04365e-12
-1.04252e-12
5.95574e-13
7.32263e-13
-2.14125e-13
2.61702e-13
-1.27068e-15
-6.16944e-14
-5.33465e-14
-9.96676e-12
-6.02952e-12
3.87224e-12
5.05781e-12
-2.21443e-11
2.17563e-11
-5.22503e-13
-4.3602e-13
-2.69208e-13
2.44973e-13
2.94195e-13
3.15239e-11
-4.91043e-12
-1.47291e-12
-3.18127e-13
-1.6098e-11
7.1308e-11
-1.05836e-12
-9.70832e-13
1.29502e-12
3.99915e-11
-2.25299e-11
-7.06988e-12
-2.29549e-11
9.14041e-12
-3.71216e-11
1.45346e-13
-5.66544e-12
-1.43114e-11
-1.32992e-11
1.0055e-12
-9.23011e-12
3.75837e-12
-5.78284e-13
2.26138e-14
3.86948e-12
5.87166e-12
-5.7823e-13
0
-7.48264e-15
-6.51264e-11
-1.42962e-11
6.82827e-12
-1.47359e-13
-8.62546e-12
2.2016e-11
-1.0612e-11
-1.32584e-12
4.46455e-13
2.74239e-13
2.05438e-11
8.38531e-12
-2.97301e-11
-2.84263e-13
-3.58441e-13
1.75915e-12
2.0699e-13
3.27425e-12
1.4891e-13
1.42527e-13
-2.3876e-14
9.57553e-14
-1.5111e-13
8.90724e-14
-2.44006e-14
1.60813e-13
-1.48844e-11
-1.48934e-11
0
2.19879e-13
-3.42015e-13
1.29343e-14
2.44156e-13
-7.08557e-14
6.64843e-14
1.46805e-14
5.40843e-14
1.48946e-13
-1.48766e-13
3.70555e-13
-2.32254e-13
6.04495e-13
9.06091e-15
4.14117e-13
1.18038e-12
-8.82347e-13
4.48734e-14
-3.72032e-12
1.47355e-13
-1.21432e-11
-2.40826e-13
2.89709e-12
3.01253e-12
-6.55003e-11
-4.44584e-11
1.2148e-12
1.27571e-11
-3.24191e-12
2.56035e-11
5.1548e-12
1.23828e-12
5.80728e-13
-1.70186e-11
4.77893e-12
-2.41163e-11
9.32327e-12
-3.33577e-11
6.08199e-12
-2.89652e-13
2.8675e-11
-3.8423e-11
-3.07084e-11
1.44812e-13
-5.52935e-12
1.84034e-11
-3.17914e-11
-1.7486e-12
-3.49107e-12
2.19645e-11
3.25717e-11
-1.75432e-11
-2.98356e-11
3.68433e-12
-1.63712e-12
-9.10267e-12
1.0264e-11
-2.83588e-13
3.60694e-13
-4.35156e-14
2.85463e-11
-4.5717e-13
-2.83687e-12
-7.73971e-12
-1.48925e-13
-2.50163e-14
3.87946e-13
-1.12727e-11
-1.2078e-11
1.17475e-11
1.13835e-11
-7.26989e-13
-1.49689e-11
-1.56399e-11
-2.97865e-13
1.60191e-13
2.77733e-13
-1.47819e-13
-1.50453e-13
-1.71474e-13
9.31085e-14
1.38217e-11
-3.10194e-13
-1.34076e-11
2.14288e-11
-5.50543e-12
2.20154e-11
6.07701e-13
3.0654e-13
-5.27532e-13
-1.29828e-13
7.313e-14
1.50181e-13
7.44283e-13
3.83427e-12
3.93303e-12
-3.54831e-13
5.70567e-13
-7.10327e-13
1.79486e-12
9.75388e-11
4.09409e-11
0
-5.89987e-13
-1.31198e-12
-3.46138e-11
7.07722e-11
2.646e-12
0
0
-6.32235e-12
-6.80868e-11
-3.68492e-13
4.06617e-12
4.35701e-13
1.2216e-12
-5.45248e-12
-3.69144e-13
4.35664e-13
0
-2.35726e-11
3.29858e-11
5.65266e-12
1.45769e-13
0
-2.41344e-13
4.01174e-11
-9.71548e-12
1.47494e-13
-4.46642e-12
-8.06261e-13
-6.52957e-12
-6.03774e-12
2.18335e-11
-2.17488e-11
-5.14168e-13
2.95519e-11
-3.84848e-11
1.50372e-11
1.37043e-11
9.84117e-14
-2.39276e-11
1.06766e-14
1.00788e-11
-1.92863e-13
9.51275e-12
-7.34515e-14
-9.93041e-12
-2.97966e-13
0
-5.02902e-13
5.99097e-14
1.05613e-13
9.05968e-14
1.98332e-15
-4.85478e-12
-4.32158e-15
6.13543e-13
-4.46957e-12
-1.59262e-11
-1.49685e-11
2.02529e-11
-2.10979e-11
3.35798e-11
-3.32298e-11
-2.70177e-13
-5.89101e-13
5.08073e-13
4.61507e-12
3.53952e-12
-2.26264e-13
5.25379e-13
4.75128e-13
-4.45689e-13
3.38505e-13
3.95566e-11
7.80332e-13
-2.14566e-11
4.57176e-12
-1.89375e-11
-4.75768e-11
1.52761e-11
7.29413e-14
1.31088e-12
4.64176e-12
-7.18933e-12
1.89167e-11
2.2112e-13
7.25231e-12
1.45061e-13
2.76942e-11
-3.2515e-11
2.77607e-11
2.29176e-11
7.28426e-13
6.60427e-13
3.28831e-11
2.35687e-11
-1.03415e-11
-1.91767e-12
-1.65932e-11
1.34882e-11
-1.76017e-12
-5.89946e-13
-8.18981e-12
-4.40885e-13
-7.15654e-13
-2.46776e-11
2.49706e-11
-9.78057e-13
2.00969e-12
-2.34056e-11
-8.96768e-12
6.40311e-12
-1.26632e-11
-9.97699e-12
1.29993e-11
9.64568e-12
-8.21525e-14
2.6388e-13
1.92012e-13
1.22413e-13
2.1166e-13
-4.47009e-13
0
6.665e-13
1.65801e-13
-5.02278e-13
4.11032e-13
-1.02723e-11
9.81195e-12
1.0372e-11
-1.05942e-11
1.48972e-13
-2.97652e-11
-4.01333e-12
-4.49849e-11
-1.12226e-11
3.42664e-11
-2.78854e-11
2.81518e-11
-2.42849e-13
-1.48746e-11
1.19069e-12
0
3.87485e-13
-1.88558e-12
1.73739e-12
1.35472e-13
-4.14244e-11
-2.91593e-11
4.29011e-11
-1.93446e-13
5.89419e-13
3.63503e-12
-2.34021e-11
-1.31133e-11
3.9359e-11
-9.44866e-12
-3.61693e-12
9.38995e-13
-5.53706e-11
-2.93363e-11
5.06328e-12
1.70728e-11
1.71009e-11
1.89409e-12
-8.28192e-12
6.51013e-12
-3.92642e-12
7.63859e-12
-2.72907e-11
-8.08781e-12
-8.28642e-12
1.10563e-11
2.20242e-11
4.027e-12
-8.8348e-12
-2.75604e-11
-8.03919e-12
2.06483e-11
1.32865e-11
-2.30789e-12
-9.12116e-12
-2.22362e-11
2.80338e-11
-5.85276e-12
-2.48852e-11
-1.98021e-11
1.48969e-13
-1.72237e-13
-1.51897e-11
-4.26008e-13
1.5282e-11
1.38445e-13
-8.34699e-14
-1.00736e-14
6.53175e-14
1.48999e-13
0
1.17072e-11
-1.10525e-11
-1.14199e-11
3.40105e-13
1.42883e-13
1.04393e-11
-2.41793e-14
-2.70631e-14
1.48977e-13
1.4883e-12
-8.95012e-14
-8.93349e-13
8.86153e-13
-2.33459e-13
-1.56108e-13
-4.00851e-13
2.05918e-11
-2.05659e-11
5.95317e-13
3.38893e-12
-8.07968e-12
6.34736e-11
1.73955e-12
5.89797e-13
2.4283e-12
-3.68763e-13
4.35833e-11
8.09462e-12
2.53389e-11
-4.79528e-12
2.18265e-13
2.69757e-11
2.56567e-11
-5.81127e-13
4.91527e-12
-2.78658e-11
4.12189e-11
6.5196e-12
3.46933e-12
-3.61442e-12
-1.31215e-12
3.28374e-12
9.54108e-12
-4.33698e-12
2.25297e-11
1.84425e-11
2.13524e-11
2.74972e-11
-2.65919e-11
-2.94798e-13
6.92746e-12
-1.06471e-11
1.20755e-11
-1.39998e-11
2.97739e-13
8.79863e-14
3.11166e-11
-3.07791e-11
-2.64302e-11
2.65511e-11
-1.47597e-13
0
-1.74783e-13
4.31799e-12
-7.44865e-13
1.08861e-13
1.08219e-12
1.47391e-11
-8.11398e-13
-9.81856e-12
1.55156e-11
-5.35099e-12
-1.52206e-11
1.49011e-13
1.17727e-11
1.10122e-11
-6.70232e-13
9.93827e-14
1.24697e-11
-2.91008e-14
-1.2284e-11
6.04696e-15
-2.59966e-13
0
1.75687e-11
-5.42509e-12
2.26444e-11
9.02826e-14
2.10233e-13
-1.1237e-12
6.49663e-13
0
-2.18133e-11
2.11402e-11
2.94799e-13
-4.36682e-11
6.09369e-11
5.81139e-13
6.84265e-11
4.75854e-11
-6.15876e-11
-4.05001e-13
-2.82063e-11
3.8317e-12
-1.58466e-11
-1.81363e-11
5.17783e-12
1.07574e-11
8.72116e-13
1.44649e-13
-2.31363e-13
1.15297e-12
9.01104e-12
8.82302e-12
2.89316e-13
-5.88195e-14
-1.09866e-11
7.48636e-12
1.30197e-11
4.79887e-12
-1.1006e-12
4.19189e-12
2.22479e-11
-3.78109e-12
-4.42325e-13
-1.10538e-12
-7.19439e-13
-2.48194e-11
2.66894e-11
4.76498e-12
2.94522e-11
-4.07832e-11
1.04204e-11
-3.40251e-11
1.03841e-11
-1.40484e-12
2.45961e-11
2.18899e-11
2.32374e-11
-1.49017e-13
-4.47914e-12
5.07762e-13
1.43226e-11
-2.69556e-13
-9.91301e-12
-1.11146e-13
-1.15735e-11
-5.57138e-15
1.16271e-11
5.0706e-12
6.98595e-15
-5.71042e-12
-4.80976e-14
4.09201e-13
2.14637e-13
1.11339e-13
-1.7494e-13
-1.2295e-11
-1.23779e-11
-3.27851e-12
3.02103e-13
2.97993e-13
4.15187e-13
-8.73786e-14
1.98188e-11
-2.06108e-11
2.68404e-11
-2.77759e-11
-3.57612e-12
-1.40247e-11
1.22218e-11
1.19756e-12
-4.64832e-11
-2.35867e-12
-1.3622e-12
-4.35473e-11
3.86552e-13
7.51895e-12
4.57534e-12
-1.4574e-13
3.6894e-14
-2.2687e-12
-6.46342e-12
0
-1.27663e-11
-2.83834e-11
2.62926e-13
8.9997e-12
1.47962e-11
0
2.23448e-11
-4.3924e-12
-9.0152e-12
2.9018e-12
2.14267e-11
2.14279e-11
8.74727e-13
8.46145e-12
-1.66206e-11
-1.47649e-13
-2.91177e-11
5.22108e-11
0
2.65835e-12
-2.08639e-12
-1.04126e-11
-2.26494e-11
2.17791e-11
-2.33811e-12
2.72215e-11
-2.49553e-11
8.77842e-13
4.28896e-13
3.45894e-11
0
-1.06564e-11
-4.87186e-14
1.06646e-11
-1.43632e-13
7.81896e-14
4.72083e-13
-1.32602e-13
-1.76117e-13
4.47521e-13
0
2.22152e-13
7.75714e-14
-2.18021e-13
8.63476e-14
4.35971e-14
-8.95186e-14
-7.89741e-14
-1.57021e-11
-1.5672e-11
6.71626e-12
-5.06455e-13
5.96371e-13
-3.65265e-14
4.74342e-13
-2.96224e-13
-9.70888e-13
5.30185e-13
-2.78262e-11
-9.99881e-12
4.44584e-13
5.51629e-12
-5.64291e-11
4.63718e-12
2.39085e-13
2.08754e-12
-1.13251e-12
-6.02027e-11
-4.24691e-11
0
1.84983e-11
-1.71274e-11
3.84571e-11
-1.74834e-11
0
-1.25883e-11
2.26361e-12
-3.21169e-12
5.69767e-12
-6.29342e-12
5.85524e-13
6.70592e-13
2.40247e-11
1.30945e-11
-3.51299e-12
1.1746e-12
2.73791e-11
-3.61319e-11
1.9069e-11
-3.52377e-12
-4.74259e-12
-4.42604e-13
2.46799e-11
-2.97884e-11
3.55748e-12
2.04462e-11
-6.39651e-12
-5.44177e-12
2.61433e-11
1.10562e-14
3.05496e-13
1.85948e-13
-8.76535e-13
1.05196e-12
-4.77775e-12
-1.04467e-11
-1.01023e-11
1.21735e-11
2.47257e-13
-1.22156e-11
-4.23844e-14
3.01404e-13
1.26929e-11
-2.51911e-13
-1.28391e-11
-2.98453e-13
1.11453e-11
4.98439e-13
-1.08926e-11
-9.59533e-15
-1.4863e-11
-1.88697e-13
1.45434e-11
3.86677e-13
0
1.49299e-13
7.02837e-13
-5.97851e-13
9.27868e-14
-2.08602e-13
1.29259e-13
-2.87156e-13
5.24621e-13
2.50578e-12
-4.17976e-12
3.2741e-12
-6.83462e-12
-2.87016e-11
4.77258e-13
-5.37801e-13
-3.86903e-13
-6.70357e-13
-3.74108e-13
7.80488e-12
1.44332e-11
1.11177e-11
3.16747e-11
-7.49175e-11
1.05427e-11
2.96408e-13
3.25805e-12
4.3097e-13
-7.33488e-12
6.58976e-12
-8.88389e-12
2.48803e-11
1.60033e-11
-1.49836e-12
-6.48431e-12
1.96936e-11
7.11582e-12
-9.86123e-13
2.54343e-12
8.66004e-12
1.03756e-12
-6.25073e-12
1.45989e-11
2.90319e-13
-2.00407e-12
-8.92995e-13
1.89586e-11
1.92622e-11
-2.24311e-13
-1.42044e-11
6.0123e-12
-1.79282e-13
-2.10184e-11
2.22457e-11
2.50237e-14
-1.73217e-11
-1.49187e-13
-1.13165e-11
-1.14572e-13
1.13422e-11
1.46861e-13
4.01084e-14
1.41455e-13
5.37528e-13
1.27568e-14
-7.46162e-13
-9.23095e-12
-4.56578e-12
1.99252e-11
1.49579e-11
3.00475e-14
5.44551e-13
1.29345e-11
-4.59447e-13
-1.31609e-11
1.48867e-13
-8.63481e-12
3.93169e-11
-4.8443e-11
4.83047e-11
-2.91966e-11
2.0627e-11
-2.08295e-11
6.31604e-13
1.56847e-14
-1.77124e-11
-1.48607e-13
-2.62375e-13
0
-1.34587e-11
1.65557e-11
1.39703e-11
9.92356e-12
-4.04305e-11
-3.11781e-11
1.84232e-11
-1.48355e-13
-2.08476e-11
3.57964e-12
2.65627e-11
-5.56085e-11
3.2379e-11
-6.42071e-12
2.85681e-12
3.70202e-13
4.30148e-12
-5.93236e-13
6.39978e-12
6.3928e-11
7.77571e-12
-2.45919e-13
2.25838e-11
-1.21486e-12
-2.72681e-11
3.10117e-11
1.89804e-11
-2.66957e-12
-2.63056e-11
3.54203e-11
-7.68328e-12
2.90125e-13
-8.19312e-13
0
-5.04759e-11
-1.13645e-11
1.48288e-13
-4.45072e-13
-2.87842e-13
-1.17205e-11
-1.13603e-11
-3.07415e-12
2.77933e-11
-2.42102e-11
3.17901e-11
-2.82031e-11
4.74685e-12
-6.98405e-12
-1.6386e-12
-5.0997e-13
-1.70753e-12
5.23631e-11
8.60558e-13
-2.34025e-12
2.16982e-12
6.73599e-12
2.08036e-12
-1.19084e-12
2.21327e-13
-2.85284e-11
2.91875e-11
-1.61566e-12
1.3794e-12
-2.7287e-11
2.7605e-11
1.04055e-13
-2.53101e-12
2.97691e-13
2.52439e-13
-3.6688e-14
1.07803e-11
-6.26718e-13
3.26376e-13
3.06878e-13
-1.06327e-11
-3.52509e-13
0
-1.48471e-13
-3.00708e-12
-2.62082e-13
-4.26975e-13
-1.38496e-11
3.31097e-12
2.80943e-11
1.08199e-11
-1.55298e-12
1.63304e-12
1.27601e-11
-1.57751e-11
-1.36881e-11
1.55623e-11
6.91025e-13
-1.95511e-11
-8.66604e-12
1.98542e-11
-1.49192e-11
5.6375e-12
1.4817e-13
3.87756e-12
-6.64618e-12
-2.6138e-11
2.57253e-11
-1.02964e-11
1.03815e-11
7.47396e-13
7.49534e-12
-1.48147e-13
0
5.9011e-12
1.07568e-13
-6.43619e-12
6.79445e-12
2.21755e-11
-2.20516e-11
-1.89982e-13
-9.29251e-12
-1.25796e-11
-1.4798e-13
-2.95151e-13
-3.29038e-11
1.35044e-11
8.89915e-14
-5.04697e-12
1.41821e-13
-2.9689e-11
9.95932e-12
-2.95927e-13
1.39102e-11
2.17683e-11
-7.83064e-12
1.50183e-11
-1.38004e-11
-7.09992e-12
-7.63008e-14
2.85661e-11
-4.64754e-12
-1.27251e-11
1.45058e-11
-9.15739e-12
-1.8916e-11
-2.06391e-12
4.55775e-11
-7.91781e-12
-4.94616e-11
2.84646e-11
8.33449e-12
-1.48007e-13
-2.0901e-11
-1.75172e-11
-2.23493e-11
2.25242e-11
-4.59792e-13
-2.13289e-11
1.99586e-11
-3.68018e-13
-2.1251e-11
7.41174e-13
1.48374e-13
2.36018e-14
2.61368e-11
-5.16281e-13
-1.3774e-11
-4.65095e-12
-1.18117e-12
-1.55445e-11
1.48834e-11
1.64708e-11
1.35085e-11
1.09432e-11
-1.13545e-13
1.52825e-11
-4.34997e-14
-1.21983e-11
-1.03593e-12
-1.43753e-11
2.57197e-12
1.58856e-11
-7.41011e-13
-1.16948e-12
-3.00253e-12
1.78083e-13
2.63688e-12
-2.23355e-14
9.77254e-14
4.48424e-13
7.24754e-13
-1.48196e-13
-1.4812e-13
1.14651e-13
-1.559e-14
8.51207e-14
5.27451e-14
-4.31816e-14
-3.5022e-14
-5.8713e-14
-3.46819e-14
-1.48112e-13
-5.18023e-12
-5.16454e-12
2.83471e-13
-2.10693e-13
1.42144e-11
-3.6772e-14
-2.46758e-11
1.838e-14
1.06316e-11
0
2.26322e-11
1.14769e-11
-1.39338e-11
-1.52986e-11
2.61168e-12
1.54802e-11
1.01713e-13
2.30632e-13
-9.32028e-14
-2.95839e-13
-1.53813e-11
-2.08841e-13
1.57518e-11
4.91814e-13
-2.49004e-13
-6.30502e-13
-3.44647e-13
-1.41449e-11
5.34943e-13
1.39026e-11
4.4369e-13
-1.33411e-11
-6.20791e-13
1.37671e-11
-3.63609e-14
-1.0001e-11
1.60032e-13
9.77297e-12
-8.68004e-14
0
-1.47925e-13
-1.70952e-11
-1.48788e-13
1.63733e-11
-2.1349e-14
1.06729e-11
1.40093e-13
-1.02703e-11
-2.31512e-13
0
-1.0953e-11
-1.12561e-11
1.02848e-13
7.04198e-14
-4.10994e-14
-1.62399e-11
1.55968e-14
1.62126e-11
2.1324e-13
1.48019e-13
0
2.7059e-14
1.2307e-11
-2.21061e-13
-1.24276e-11
1.71201e-11
2.46863e-13
-1.69202e-11
1.9935e-13
1.48122e-13
0
-4.53928e-13
-2.02171e-14
3.32292e-13
-3.92087e-14
6.66336e-13
4.92232e-14
-5.47431e-13
1.63096e-14
0
1.48052e-13
1.05261e-11
3.23951e-13
-1.05626e-11
2.04837e-13
-8.5193e-14
-1.13634e-11
-3.85598e-13
1.08492e-11
1.48051e-13
0
-6.30929e-13
1.02543e-11
7.10391e-13
-1.03385e-11
5.15089e-12
-1.89216e-13
-5.28961e-12
-3.87797e-14
1.48001e-13
1.09476e-11
1.10046e-11
1.47607e-13
2.24269e-13
-3.00195e-13
-1.3413e-13
-1.00581e-11
-1.01597e-11
1.01695e-11
1.02078e-11
1.05005e-11
1.06506e-11
-1.36625e-11
-1.03443e-11
1.03836e-11
7.02642e-12
-1.03738e-11
3.22308e-12
1.40321e-11
1.47898e-13
-1.16822e-11
-1.22101e-11
1.07866e-11
2.59138e-11
1.92275e-11
-1.46715e-11
-1.99626e-11
5.94058e-13
1.91404e-12
7.3943e-13
1.47875e-13
-2.76419e-14
-1.83432e-13
1.68116e-13
5.88457e-13
-2.89179e-16
5.10533e-13
-2.85263e-13
-8.7163e-13
-1.47888e-13
-1.44935e-11
-1.06792e-11
1.43055e-11
1.07565e-11
-1.4498e-11
-1.45608e-11
1.46181e-11
3.48188e-12
-2.84728e-13
1.12407e-11
1.47939e-13
1.13571e-13
-1.26988e-14
4.25037e-13
-1.23605e-13
-6.37056e-13
-1.26213e-13
1.53061e-13
1.13716e-11
1.12441e-11
-1.40598e-11
-1.35776e-11
1.4172e-11
2.81349e-11
5.11461e-13
-1.49795e-11
-6.38023e-13
1.87518e-13
-5.06968e-14
0
1.48043e-13
-8.28235e-13
-2.95295e-13
1.09428e-12
-1.22244e-11
-3.52715e-13
-1.62039e-12
1.74408e-11
1.36725e-11
-1.68778e-11
-1.12457e-11
-1.10186e-11
5.17132e-13
-4.35978e-13
-4.70612e-13
5.68432e-13
-3.45677e-13
-2.2272e-13
3.10967e-13
-1.47972e-13
-2.95886e-13
1.47177e-11
1.49566e-11
-4.87182e-13
-1.3265e-11
2.08285e-13
1.25681e-11
1.10645e-11
3.50588e-14
-1.0948e-11
-1.18328e-12
1.09069e-11
2.14165e-12
-1.02243e-11
-5.65343e-13
1.03248e-11
2.44932e-11
1.69666e-15
-1.40108e-11
-1.47914e-13
8.87305e-13
1.17557e-12
1.44022e-13
-1.53324e-11
-1.60632e-11
1.52043e-11
1.63051e-11
-3.83735e-14
4.57022e-13
5.9157e-13
1.36043e-11
1.32765e-11
-3.86245e-13
-1.31219e-11
1.5989e-13
1.33588e-11
-1.19664e-11
1.05812e-11
1.52034e-11
-6.95058e-12
1.39e-11
1.21537e-13
-1.3881e-11
2.51322e-14
1.06641e-13
-1.12642e-13
-2.33262e-13
1.76761e-13
1.04694e-11
1.0352e-11
0
1.08868e-11
-1.33186e-14
-1.18111e-11
1.4918e-13
-8.4705e-14
-3.41559e-14
1.41786e-11
-1.08503e-13
-1.36064e-11
-1.47907e-13
2.04518e-13
-9.37749e-14
-1.44287e-11
-9.86505e-13
1.44181e-11
3.70341e-13
-4.1586e-13
5.9229e-13
2.95836e-13
-1.47939e-13
-1.80239e-13
-5.65008e-14
2.81701e-13
-2.42233e-14
-8.4291e-14
1.16426e-15
-1.0978e-11
-2.95372e-13
1.09481e-11
2.95928e-13
-5.50371e-14
-3.86369e-13
-7.23966e-14
1.59585e-13
2.83285e-12
-6.90683e-15
-2.80041e-12
2.14659e-13
0
-8.94951e-12
-9.66574e-12
-6.3015e-13
1.00919e-12
-2.94386e-13
-9.08034e-13
2.11293e-13
-6.16031e-14
-8.47421e-14
-3.6957e-13
-7.38528e-14
-1.81912e-14
-3.02937e-13
1.17465e-11
-4.95391e-12
-1.2249e-11
5.01247e-12
4.64468e-13
2.36566e-13
2.2176e-13
-5.17546e-13
-9.48551e-14
-9.7022e-12
-1.66593e-13
-3.40866e-12
-1.11832e-11
1.37251e-11
1.12069e-11