/*--------------------------------*- C++ -*----------------------------------*\
  =========                 |
  \\      /  F ield         | OpenFOAM: The Open Source CFD Toolbox
   \\    /   O peration     | Website:  https://openfoam.org
    \\  /    A nd           | Version:  10
     \\/     M anipulation  |
\*---------------------------------------------------------------------------*/
FoamFile
{
    format      ascii;
    class       volScalarField;
    location    "0.6";
    object      gradTx;
}
// * * * * * * * * * * * * * * * * * * * * * * * * * * * * * * * * * * * * * //

dimensions      [0 -1 0 1 0 0 0];

internalField   nonuniform List<scalar> 
46825
(
1.49086e-13
-1.32471e-13
-1.33412e-11
-3.2096e-14
2.32423e-11
-7.12798e-13
-1.42706e-11
5.87387e-13
4.13953e-12
-4.47299e-13
2.98106e-13
1.32386e-13
1.77311e-13
1.04079e-12
8.95391e-14
-1.1225e-12
-1.39951e-11
2.64958e-13
1.48746e-11
2.98125e-13
-1.14657e-11
3.19424e-12
1.11271e-11
-1.44686e-11
-1.10008e-11
-9.99948e-14
-4.92741e-13
5.15281e-13
7.20227e-13
-1.48912e-13
-1.48691e-13
1.4107e-13
-1.25702e-11
-4.90954e-13
1.24644e-11
2.72196e-13
1.56733e-11
-3.14667e-13
-1.55333e-11
2.97386e-13
1.08442e-11
1.1357e-11
4.56253e-13
-3.76315e-13
1.40825e-13
-2.39058e-13
1.4734e-11
-1.32386e-13
-1.45242e-11
4.45643e-13
-1.08455e-11
6.34518e-14
3.18831e-13
-1.08999e-11
1.27261e-11
1.42904e-14
-1.28773e-11
-1.25597e-13
-1.53433e-13
2.97125e-13
9.51916e-12
6.79484e-12
9.37515e-13
-7.68119e-12
-1.00662e-11
5.91091e-13
-9.02583e-13
8.95165e-14
3.76544e-13
2.97462e-13
-4.46889e-13
-1.42844e-13
9.64715e-12
-1.55733e-13
-9.61073e-12
2.53793e-13
-1.1695e-11
2.42971e-13
1.17638e-11
0
1.491e-13
-1.02136e-11
-2.12229e-13
1.00919e-11
2.18935e-13
-2.49367e-13
6.50762e-13
3.14722e-13
-5.81075e-13
-1.49101e-13
1.49119e-13
-1.23762e-15
-9.05901e-13
-6.98666e-14
5.94183e-13
-1.82756e-13
-4.87199e-13
-3.49144e-14
5.29112e-13
1.49126e-13
-2.98394e-13
-8.98411e-14
1.62807e-13
4.11856e-13
4.44358e-15
-1.67543e-14
1.03068e-11
-1.80859e-13
4.38303e-13
1.07435e-11
0
-5.95427e-14
-1.37712e-11
1.05935e-11
1.37304e-11
-1.08076e-11
4.87635e-14
4.31844e-13
7.39383e-14
1.49332e-13
0
2.69323e-12
2.21895e-11
-2.23144e-11
8.90881e-13
8.6048e-14
-4.99388e-13
-3.83136e-11
6.54616e-12
-1.49297e-13
-2.98387e-13
-4.78493e-12
1.14907e-12
2.62998e-11
-6.7502e-12
-2.0336e-11
4.55001e-15
7.73356e-13
-2.24291e-13
0
4.47474e-13
4.67379e-12
-2.38886e-11
2.34944e-11
6.37836e-13
-2.64109e-11
2.70055e-11
-2.29443e-11
4.0755e-12
-1.04409e-12
-1.49173e-13
-3.40291e-12
7.08257e-12
-2.81302e-13
-3.09519e-13
2.12766e-13
-7.20012e-14
3.75483e-13
4.11329e-13
2.98332e-13
1.05957e-11
-3.36567e-12
-1.32147e-11
7.37421e-13
3.01365e-11
-3.01127e-11
-4.15732e-13
2.71655e-12
-7.47898e-13
0
0
4.52811e-12
-6.834e-12
-1.62154e-12
2.05534e-12
-3.03089e-13
1.14722e-14
-4.62422e-15
-8.12052e-12
1.86672e-11
5.07825e-12
5.37253e-12
-1.6091e-14
-1.39904e-12
1.10589e-11
1.09166e-12
-2.25858e-11
-6.50523e-14
1.20175e-11
4.48082e-13
2.98441e-13
-5.36732e-14
-4.59298e-13
-3.27603e-13
-7.08003e-14
7.88289e-13
2.03454e-13
-2.15123e-13
-1.18042e-11
-1.14907e-11
-1.56621e-11
-1.57736e-12
6.40443e-13
-1.42342e-11
-7.31837e-13
1.73286e-11
4.21289e-14
-1.75929e-11
-8.88615e-14
1.49191e-13
1.98458e-11
2.03884e-11
-2.22343e-13
1.79327e-13
-2.56137e-13
-3.32432e-13
-3.47917e-13
2.17639e-11
-2.14539e-11
-1.49247e-13
-4.47221e-12
-4.56389e-12
7.94041e-13
-1.03585e-12
3.11551e-13
1.78967e-13
-8.7501e-13
-2.16251e-11
2.20381e-11
2.98189e-13
-2.45783e-11
-1.90977e-11
8.05196e-11
-1.52195e-07
-1.22746e-08
2.80625e-09
3.62477e-08
1.04354e-08
3.99508e-11
3.0241e-11
1.49007e-13
4.21575e-11
1.10506e-10
-2.03215e-07
2.77186e-08
-6.26525e-09
-7.72059e-08
1.54628e-08
-1.89671e-13
-2.42884e-11
7.74871e-12
3.22121e-14
1.83446e-10
-2.08583e-07
2.96008e-08
-6.72488e-09
-8.09714e-08
1.58049e-08
-5.30863e-14
-2.98014e-13
-1.43023e-11
8.9889e-12
1.50174e-10
-1.81258e-07
2.35291e-08
-5.26446e-09
-6.4498e-08
1.43287e-08
-3.21963e-13
-4.91603e-12
5.81543e-12
-2.43738e-11
4.93028e-11
-1.24673e-09
-9.42902e-10
2.14011e-10
2.62734e-09
-1.52601e-11
-1.92613e-13
1.4016e-11
2.98511e-13
2.78577e-13
-3.39954e-11
3.47491e-11
-1.0487e-12
1.83201e-13
6.7224e-13
-2.62625e-11
2.55883e-11
-3.8807e-12
1.49171e-13
-1.37629e-13
4.61549e-14
-2.00173e-13
1.26064e-11
-1.42552e-13
-1.20695e-11
-8.93911e-14
-7.3465e-14
1.49187e-13
-1.29463e-11
2.82946e-13
1.26503e-11
-3.27033e-13
1.02817e-11
1.04574e-11
-1.05181e-11
-9.08182e-12
-1.12906e-13
-1.04198e-12
2.88189e-11
2.83405e-11
8.87972e-13
-4.89392e-11
-1.06805e-11
2.24158e-12
5.27252e-11
8.59038e-12
-4.78872e-13
-4.45838e-13
-7.37934e-13
-1.52134e-12
-3.25234e-09
-1.65527e-07
-4.81091e-09
2.26402e-10
9.35255e-09
4.20975e-07
9.15023e-08
-1.72739e-11
-1.26137e-11
8.36022e-09
4.08894e-05
-0.808837
-0.00515703
0.000326551
0.0138958
0.646683
2.01223e-06
1.61373e-12
-1.34758e-11
8.00644e-09
4.22454e-05
-1.24308
-0.0175055
0.0010393
0.0495947
0.838201
1.76666e-06
-7.03142e-12
9.66763e-12
7.9742e-09
4.24437e-05
-1.2493
-0.0182843
0.00109727
0.0509726
0.841187
1.75295e-06
1.58194e-11
2.4936e-12
8.18921e-09
4.18065e-05
-1.22832
-0.0180805
0.0010354
0.0505126
0.827761
1.80579e-06
-4.40006e-13
3.6904e-12
5.60573e-09
4.19661e-05
0.0098484
-0.00746375
-0.00929871
-0.0107944
-0.0351521
9.68433e-07
-2.36189e-12
1.48588e-13
-1.20539e-13
5.77101e-09
1.37069e-08
4.79998e-10
-6.20935e-11
-2.40817e-09
-2.12765e-08
-1.06887e-12
3.41801e-12
-1.13094e-11
-7.51928e-14
1.20352e-11
-1.91344e-13
-9.63331e-14
2.38155e-13
9.85454e-12
-3.30986e-13
-9.18e-12
5.95335e-13
0
1.28775e-11
1.55831e-11
3.20671e-12
-1.53794e-11
-2.92428e-12
-5.64484e-13
-5.1951e-13
1.17642e-13
-1.2191e-11
2.96633e-13
1.52941e-12
3.59511e-11
2.12916e-09
6.64705e-10
-6.40184e-11
-1.38068e-09
1.78571e-10
-6.1981e-11
5.63891e-12
4.40687e-13
-4.68116e-10
-1.73048e-06
-0.00238818
0.000775015
0.000130587
-0.000774732
0.000890425
5.90155e-07
-1.46952e-11
-1.93046e-11
-8.02909e-08
-0.70966
0.000302799
1.23406e-11
-3.19478e-11
-2.09695e-07
-0.863575
0.000650768
2.28427e-11
-1.85047e-11
-1.99944e-07
-0.865309
0.000652286
4.23562e-11
-2.09053e-11
-2.29069e-07
-0.861398
0.000645448
2.13351e-11
1.46943e-13
6.24353e-09
0.0178819
-4.06601e-05
-7.93402e-12
1.7656e-11
6.56899e-12
1.98148e-08
8.75025e-06
6.72146e-07
-1.16435e-07
-2.90636e-06
1.55114e-06
3.02161e-10
-1.11296e-11
1.4862e-12
-1.02992e-11
-4.6366e-13
1.65094e-11
-1.91483e-13
-4.39661e-12
2.49126e-12
-8.44166e-13
7.17022e-12
9.66227e-12
-1.08525e-11
1.26791e-11
1.09558e-11
-1.28672e-11
2.18858e-13
-1.25587e-13
-1.06515e-13
3.71659e-13
-4.90488e-14
-1.4871e-13
-1.42546e-11
-1.87685e-11
3.23743e-11
1.25472e-09
8.84169e-10
-5.2417e-11
-1.87736e-09
1.72399e-10
-3.4741e-14
4.45611e-13
1.91158e-12
-5.29723e-10
-1.83626e-06
0.0244101
0.000670123
0.00013655
-0.00119158
0.000998497
6.21533e-07
2.94081e-13
-1.39254e-11
-6.27442e-08
-0.728723
0.000512198
-2.75585e-12
-2.49677e-11
-2.25732e-07
-0.901331
0.000719355
4.4163e-11
-1.35673e-11
-2.11318e-07
-0.903823
0.000722162
4.64715e-11
-2.32151e-12
-2.42677e-07
-0.898341
0.000708495
6.5266e-12
5.88409e-12
6.99367e-09
0.0189482
-4.31093e-05
-6.76421e-12
2.59956e-11
-5.75986e-13
2.09428e-08
1.0246e-05
9.28671e-07
-1.67396e-07
-3.86443e-06
1.74352e-06
3.60137e-10
5.94221e-13
9.66352e-12
-1.37264e-11
-9.8608e-12
1.40359e-11
5.6877e-13
-3.4484e-13
-1.51285e-11
-1.04597e-11
2.59715e-11
2.20071e-11
-2.97499e-13
2.72824e-11
1.07418e-11
-1.65704e-11
7.54509e-15
-1.43042e-11
-1.92752e-14
3.73705e-12
1.75574e-13
1.05645e-11
-1.39696e-11
-2.17954e-11
7.7359e-12
1.13258e-09
8.51442e-10
-5.85594e-11
-1.86333e-09
1.73411e-10
7.69191e-14
0
3.8264e-12
-5.53845e-10
-1.85254e-06
0.0245629
0.000671022
9.14605e-05
-0.00119362
0.00100547
6.28212e-07
-7.35766e-13
-2.64165e-11
-5.25911e-08
-0.729681
0.000515578
1.40762e-11
-2.61345e-11
-2.09279e-07
-0.903193
0.00072238
2.46898e-11
-2.70035e-11
-1.99063e-07
-0.905573
0.000724962
3.3933e-11
-1.0018e-11
-2.32121e-07
-0.900024
0.000710598
1.69831e-11
1.0306e-12
7.02154e-09
0.0189798
-4.32275e-05
-7.36009e-13
1.4868e-13
4.37732e-14
2.09925e-08
1.03718e-05
9.78248e-07
-1.65947e-07
-3.90706e-06
1.74806e-06
3.62324e-10
-3.56876e-12
0
1.47525e-11
3.76764e-13
-2.97667e-11
-6.50798e-13
1.59469e-11
5.40057e-12
-3.53197e-13
-4.96283e-12
0
1.66683e-11
-3.7221e-13
-1.69048e-11
5.19604e-13
9.45549e-14
-9.9074e-13
-1.29844e-11
1.33721e-11
1.30745e-11
-1.28025e-11
2.23043e-12
-6.28757e-13
1.93013e-13
1.11904e-09
8.71675e-10
-1.09074e-10
-1.81927e-09
1.65004e-10
-1.10468e-13
1.48743e-13
2.20884e-11
4.55258e-11
-1.832e-06
0.0245818
0.000671117
4.62169e-05
-0.00123861
0.00100558
6.2432e-07
3.09187e-12
-1.58312e-11
-5.30976e-08
-0.72973
0.000516082
1.71339e-11
-8.52488e-12
-2.09371e-07
-0.903239
0.000722646
2.77413e-11
-2.29759e-11
-1.98443e-07
-0.905756
0.000725093
1.95087e-11
-1.67075e-11
-2.31511e-07
-0.900065
0.000699503
2.22298e-11
1.4732e-13
7.00816e-09
0.0189786
-1.76562e-05
5.45119e-12
3.27288e-12
-7.15159e-12
2.09118e-08
1.03753e-05
9.83758e-07
-1.62801e-07
-3.92242e-06
1.7479e-06
3.8007e-10
4.01738e-12
-1.1758e-11
-2.87738e-12
1.17488e-11
-1.42633e-11
-1.19925e-15
1.69373e-11
-5.93842e-13
4.46008e-13
3.80235e-13
-1.48862e-13
-1.38459e-11
-1.44915e-11
1.31446e-11
1.21731e-11
-1.32048e-11
2.63855e-12
3.30544e-13
-1.49904e-11
-1.10445e-12
-1.48922e-13
-1.48752e-13
6.46746e-14
-1.45558e-13
1.21978e-09
8.25866e-10
-5.06561e-11
-1.82034e-09
1.2765e-10
2.04614e-11
-4.91034e-12
1.23766e-11
6.89948e-11
-1.83474e-06
0.0245539
0.00067072
9.14221e-05
-0.00123793
0.00100593
6.26864e-07
-1.47323e-13
-2.9226e-11
-6.04905e-08
-0.72946
0.000515688
1.52643e-11
-1.98251e-11
-2.17283e-07
-0.902652
0.000720982
2.0693e-11
-4.45746e-11
-2.06388e-07
-0.905029
0.000723295
9.84126e-12
-2.00721e-11
-2.40753e-07
-0.899467
0.000706831
-5.3815e-12
0
7.00388e-09
0.0189635
-0.00010605
5.15931e-12
1.48825e-13
-2.0554e-12
2.09175e-08
1.02694e-05
9.65855e-07
-1.37746e-07
-3.83653e-06
1.73529e-06
3.42887e-10
4.46533e-12
0
1.04434e-11
-1.61128e-14
-1.06409e-11
4.61931e-13
-4.36638e-14
-8.6031e-14
1.15565e-11
3.84505e-14
-1.14664e-11
-2.97844e-13
-2.18203e-13
6.41374e-13
1.12936e-11
-2.35296e-13
-1.10414e-11
-1.31775e-13
3.77355e-14
-1.16876e-13
-1.4896e-13
2.97597e-13
-1.02543e-12
-2.93587e-11
9.95669e-11
6.57771e-11
2.08316e-11
-3.11085e-10
9.40782e-11
4.35031e-11
-1.23538e-11
1.37134e-11
4.14975e-11
-1.80675e-06
0.0208421
0.000523743
4.48247e-05
-0.000908261
0.000959966
6.13781e-07
-9.2891e-12
-6.55746e-12
-3.28516e-09
-0.717689
0.000437585
-2.47688e-12
-2.75781e-12
-1.82065e-08
-0.876746
0.000502043
-4.20909e-12
-7.25802e-13
-8.51231e-09
-0.878637
0.000502574
5.80608e-13
1.70539e-11
-4.63647e-08
-0.874404
0.000503248
-3.20603e-12
-1.47514e-13
5.73742e-09
0.0181719
-3.86705e-05
3.53981e-12
1.48861e-13
2.38329e-11
1.85985e-08
7.30998e-06
5.37259e-07
-7.07274e-08
-2.14847e-06
1.36275e-06
3.22172e-10
0
0
-5.90019e-14
-1.51031e-11
-5.55612e-13
1.60694e-11
8.71234e-13
-1.87356e-11
-3.32912e-13
1.83063e-11
0
-2.72565e-11
-1.16114e-11
1.60603e-11
5.14647e-13
4.81988e-14
1.61105e-11
-6.43262e-14
-1.66537e-11
-8.50463e-14
0
-2.35142e-11
-1.8266e-11
-1.78615e-12
-2.01336e-12
-5.62841e-13
-1.05687e-14
1.73604e-12
-1.17769e-12
-1.30956e-12
-3.86991e-12
-4.8658e-12
2.59934e-11
-8.25098e-08
1.03467e-06
2.93799e-08
2.39828e-09
-5.71511e-08
-4.94867e-06
1.37429e-08
-4.571e-12
-4.9541e-12
2.69855e-10
-0.000136736
-4.52378e-07
1.80675e-11
-1.45149e-13
2.40743e-10
-0.000140568
-4.74136e-07
1.45143e-13
1.30642e-11
2.33066e-10
-0.000140692
-4.75554e-07
4.64479e-12
1.48654e-11
2.56761e-10
-0.00014036
-4.69056e-07
4.8088e-12
-5.89996e-13
-1.19977e-10
-0.000125205
-1.32381e-07
-4.86693e-12
1.19101e-12
-1.82811e-11
2.55717e-10
-4.2974e-09
-3.24958e-10
5.15242e-11
1.13863e-09
2.26298e-09
-1.84098e-11
2.9776e-13
0
-3.40969e-13
4.03189e-14
3.56582e-13
-7.44962e-12
-5.47109e-14
6.93771e-12
1.23263e-13
1.31377e-12
2.97928e-13
0
1.59905e-14
-2.64827e-14
1.76082e-11
1.14532e-11
-1.74032e-11
7.94123e-13
-1.09111e-11
-1.31813e-11
9.83117e-12
8.9291e-13
-1.10783e-13
1.19138e-12
9.78875e-13
-1.00591e-12
-5.61841e-13
2.23175e-11
3.53044e-12
-2.58241e-11
4.01817e-12
-4.42032e-12
-1.72786e-11
5.06607e-11
4.19988e-11
-1.37365e-12
-5.01328e-11
-1.50921e-12
-2.75841e-11
7.69826e-12
-4.56802e-12
-4.6526e-12
1.00276e-11
-8.18962e-13
-7.68801e-12
-1.67215e-11
-2.31553e-11
-1.86375e-11
1.11532e-11
2.34765e-11
-4.77568e-12
2.89456e-13
-3.71496e-13
9.81696e-12
1.75857e-12
-1.44721e-13
0
-8.87118e-14
6.48668e-12
2.91421e-13
-1.9048e-11
-3.06571e-11
-1.16485e-11
-4.74553e-12
6.29185e-12
-1.20844e-11
-8.33628e-12
9.52846e-12
-3.0134e-13
-1.93902e-12
4.21151e-12
-1.98954e-12
-4.67863e-13
1.80539e-13
-6.8849e-14
-6.69846e-12
4.46836e-13
6.14741e-14
-7.72786e-13
1.05364e-13
-2.52971e-14
-7.13963e-13
-1.38576e-13
-1.383e-11
4.88496e-13
1.41507e-11
-2.51699e-11
-3.71517e-13
2.49158e-11
-1.02706e-11
1.00905e-11
1.03238e-11
-9.66041e-12
-2.71363e-13
1.79833e-13
-1.48942e-13
2.97608e-12
2.22389e-13
-2.26399e-11
2.25508e-11
2.29925e-13
-1.84179e-13
-3.29262e-11
4.00156e-11
-5.84885e-12
4.16638e-12
2.94572e-13
-9.50026e-13
5.63591e-11
1.74321e-12
-5.89792e-13
8.91164e-13
-1.98031e-12
-2.06139e-12
1.20929e-12
-5.74455e-12
-1.45253e-13
4.31888e-13
1.49369e-12
-5.79517e-13
0
0
1.26753e-12
2.20316e-11
1.46454e-13
-2.89052e-13
-1.15629e-12
2.08139e-13
-2.50252e-12
1.30616e-11
-7.94914e-12
-4.35818e-13
-1.23804e-13
9.4415e-13
6.70955e-12
1.4962e-11
-2.94653e-13
2.23261e-13
1.87245e-11
9.44087e-12
-2.12123e-11
-1.20561e-11
-2.21054e-11
-2.92868e-13
-1.13035e-11
-1.9837e-13
2.45863e-13
-8.10797e-13
8.372e-13
-2.83161e-13
-1.04183e-12
-1.14679e-11
-2.38568e-11
-2.23545e-13
2.34607e-11
1.0435e-11
-1.12715e-11
-8.95401e-12
1.30606e-13
-1.17298e-12
-1.4894e-13
7.44638e-13
6.24396e-13
-4.60327e-15
-9.66664e-12
2.13299e-13
9.9237e-12
1.13479e-11
1.41012e-11
-1.16215e-11
-1.45953e-11
0
-1.00667e-12
5.95795e-13
2.30466e-11
-2.20585e-11
-2.22789e-11
2.17881e-11
2.05952e-12
-1.97367e-12
1.84507e-11
3.68183e-12
-6.48946e-12
-1.93745e-12
4.06824e-12
1.00877e-10
-3.95234e-11
3.80152e-13
6.75142e-14
6.522e-12
-2.94546e-13
1.45225e-13
-5.04636e-13
7.29147e-11
1.14829e-11
1.72818e-11
1.54608e-11
9.06631e-12
-9.79776e-13
2.0662e-11
-8.81389e-12
5.77993e-13
-1.85312e-12
6.94085e-12
-9.25044e-12
4.91279e-12
-4.06674e-12
3.05911e-11
-1.81368e-11
7.80692e-12
1.07473e-11
7.95445e-12
-6.61697e-12
4.32159e-13
-6.79673e-12
1.32564e-12
-1.399e-11
-1.68623e-11
-1.20785e-12
1.40803e-12
-7.05759e-13
4.99361e-13
-2.18293e-11
2.26414e-11
-5.47397e-13
0
0
1.68558e-13
1.62235e-13
-4.58659e-13
-7.42061e-13
-1.37045e-11
1.31281e-11
1.65534e-11
-1.25604e-11
-1.93609e-12
2.38293e-12
2.62913e-12
7.38609e-13
1.47051e-11
-1.07999e-14
-4.57335e-12
2.08848e-13
-1.02704e-11
1.26443e-11
1.28087e-11
-3.57114e-12
8.59858e-13
2.97885e-13
3.07994e-11
-3.0586e-11
2.22421e-11
-2.20045e-11
0
2.16611e-11
-3.86879e-12
2.53333e-11
2.163e-11
4.24726e-11
0
0
-7.38235e-13
1.08344e-10
-6.25389e-11
2.21466e-11
-5.7441e-12
-7.40864e-12
-1.70056e-12
-1.59587e-12
-1.09739e-11
5.08428e-12
-4.77018e-12
2.34371e-11
-4.99539e-11
-8.86375e-12
3.61375e-12
-2.73212e-11
-1.01423e-11
6.42662e-11
-6.89935e-12
1.44554e-13
-7.26411e-13
-2.80735e-13
-4.91123e-13
-6.20012e-12
1.16222e-12
1.45844e-11
-2.48236e-11
4.65262e-11
-2.78132e-11
2.50424e-11
2.20269e-11
1.54592e-11
3.01943e-11
-3.01856e-11
3.2987e-11
-6.77044e-11
3.33463e-11
2.35628e-13
6.48059e-13
-1.2055e-11
0
5.20363e-13
-1.33701e-11
-1.63281e-13
2.99301e-11
-1.66568e-13
-1.61575e-11
-1.80661e-13
-1.4752e-13
0
5.95762e-13
3.17165e-13
6.40781e-13
-7.10314e-14
-3.97274e-13
-1.55005e-12
1.47457e-13
1.75046e-12
1.08545e-11
1.11712e-11
-1.16067e-11
3.03642e-12
-2.5906e-11
1.14759e-12
1.91391e-11
-2.03506e-11
5.16394e-13
-2.9411e-13
-6.76461e-14
-5.0597e-12
1.47345e-11
1.48463e-11
1.50264e-13
0
-2.3576e-12
-1.54926e-12
5.74632e-13
4.12588e-12
8.85104e-12
0
-4.36341e-13
4.05277e-13
1.58817e-13
-7.26042e-14
6.25433e-12
1.44808e-13
2.64431e-13
2.22013e-11
9.51056e-12
-1.44808e-13
-3.62034e-12
7.22914e-12
3.98431e-12
-9.6012e-12
2.89624e-12
-1.92015e-11
-1.47983e-11
3.83706e-12
0
0
-3.24239e-12
6.04356e-12
2.85055e-11
-3.52532e-11
9.13723e-12
-1.41403e-11
-1.51348e-11
-6.03474e-13
-3.06614e-11
3.06684e-11
1.55527e-13
-2.70954e-13
-7.42779e-13
8.21127e-14
-4.46525e-13
1.95121e-11
2.42397e-13
-1.94767e-11
-1.63603e-11
-4.88644e-13
1.58817e-11
5.83214e-13
1.63619e-11
-9.26403e-14
-1.66822e-11
-1.48961e-13
2.3103e-13
-1.36729e-11
-3.51108e-13
1.36487e-11
-2.18133e-13
5.7799e-14
5.87723e-14
-1.26716e-13
-2.9797e-13
1.19063e-12
5.01362e-14
3.3932e-11
-6.03201e-11
2.61116e-11
-2.62874e-11
2.7343e-11
1.16363e-12
-2.44861e-12
-3.72147e-12
0
-1.25095e-12
2.2301e-12
-2.59691e-13
9.56391e-11
-1.57104e-12
6.04467e-13
2.86548e-13
-6.8665e-12
-1.47476e-13
-4.22701e-12
-4.63899e-13
-1.55323e-11
2.39239e-11
-3.7898e-12
4.35648e-13
1.72502e-13
4.33047e-12
-6.85472e-12
-7.26086e-13
-8.71334e-13
-9.98759e-13
-4.71406e-11
7.30894e-12
4.0662e-12
1.89508e-12
-5.90774e-12
-1.3518e-11
-6.97408e-12
1.45771e-13
-6.78553e-12
6.56361e-12
2.14965e-12
1.16863e-12
-7.67002e-12
1.04228e-12
-1.05461e-11
1.26397e-11
-4.65526e-12
4.05079e-13
-4.52437e-13
-3.73011e-11
3.827e-11
2.4845e-13
-1.42937e-11
0
-2.15799e-13
1.95021e-13
-1.27265e-13
1.72653e-14
1.81024e-11
1.28312e-11
-1.81966e-11
-1.39061e-11
-4.46956e-13
5.95862e-13
8.71046e-13
-6.64818e-13
-1.44433e-13
4.60438e-13
2.01162e-14
-1.31443e-13
1.55573e-14
-1.64757e-13
-2.98006e-13
-1.39901e-11
-1.39801e-11
-2.97829e-13
4.26341e-15
-4.51172e-14
5.60052e-13
5.37468e-13
2.94504e-13
-1.53279e-13
1.4144e-11
1.23864e-11
5.20648e-12
-1.31107e-12
-1.63895e-12
-1.35108e-12
-4.47159e-11
6.74025e-12
-2.51105e-13
1.74804e-12
-3.68706e-12
1.45656e-13
-2.25174e-13
-1.70227e-11
7.29227e-13
-1.79165e-11
-4.20629e-12
-2.254e-11
3.27709e-11
3.36096e-11
4.35147e-13
0
-6.66585e-13
-9.09872e-12
1.65385e-11
-3.19116e-12
-1.45662e-12
3.57455e-12
-2.42546e-11
-1.5125e-11
-1.5003e-11
8.40757e-12
-6.42328e-12
-8.60965e-13
1.003e-11
5.01486e-12
4.61662e-12
2.39247e-13
-6.54434e-13
4.52461e-13
2.33659e-14
-2.85594e-11
2.83265e-11
2.04739e-11
-2.02067e-11
2.97843e-13
-1.92211e-11
-6.39595e-13
1.92954e-11
1.69972e-13
-1.66852e-13
4.02823e-13
-1.95421e-13
-1.86478e-11
1.18348e-13
1.86251e-11
0
-9.88724e-14
1.86351e-13
2.0142e-13
1.92884e-14
-8.20911e-14
-3.63467e-13
3.71376e-14
-5.02564e-14
1.48993e-13
4.31508e-12
2.00189e-15
2.17491e-11
-2.14579e-11
1.23883e-12
-2.08117e-12
6.00981e-13
8.82737e-13
-1.06768e-13
-1.99467e-11
6.48375e-12
-7.86407e-12
1.43159e-12
-1.73728e-12
5.8244e-13
1.03687e-13
6.67734e-13
7.1968e-14
0
-1.12003e-11
1.45381e-13
-2.14226e-11
4.93191e-11
-3.12004e-12
-1.43926e-11
-3.03793e-12
2.24712e-11
-2.96133e-11
7.38778e-12
5.49736e-12
7.81205e-12
1.07255e-13
-9.4093e-14
-1.60505e-11
-1.43224e-11
1.45374e-13
-6.93144e-13
2.27368e-11
1.98919e-11
-1.16302e-12
-1.47386e-13
-1.92496e-13
1.09373e-11
6.94878e-12
1.28229e-11
2.23339e-11
1.73068e-11
2.11311e-12
-2.23172e-12
1.33546e-12
-1.21961e-13
-1.6053e-13
-3.31547e-13
-1.87338e-13
1.53367e-11
-2.08594e-12
-1.37246e-11
3.14778e-12
8.55986e-14
-2.47488e-11
3.39047e-15
-9.52214e-13
-1.19437e-13
2.50863e-11
1.3708e-11
0
1.25203e-11
3.59968e-13
-1.23953e-11
-3.3041e-14
-5.58672e-13
-2.78122e-14
1.93411e-13
-1.23059e-13
2.98008e-13
1.10106e-11
-3.55769e-11
2.32412e-11
-3.39448e-13
8.21644e-14
-3.29993e-13
-3.30978e-11
3.24796e-11
8.88315e-13
-4.16797e-12
-1.10495e-11
-2.53296e-12
9.78279e-13
-3.59408e-11
-5.39894e-11
8.71783e-12
2.84359e-12
-5.05307e-11
4.42085e-11
-5.15648e-12
-1.45302e-13
6.95226e-13
1.92565e-11
2.17982e-12
1.40928e-11
2.89105e-13
-1.40098e-12
1.02905e-12
-3.06909e-11
4.19211e-12
-3.6139e-12
2.52332e-11
-1.49047e-11
6.97239e-12
5.34869e-12
1.30765e-12
6.28899e-12
1.70097e-12
4.3036e-11
-1.56922e-11
-1.47352e-13
5.6632e-13
-1.52669e-11
1.13447e-11
-2.94725e-13
-3.27548e-12
-1.10551e-12
2.60694e-13
5.11002e-13
-5.24341e-13
2.82875e-11
-2.77789e-11
-4.81428e-11
4.90058e-11
-4.467e-13
-2.98011e-13
1.08505e-11
-1.56485e-11
-1.06163e-11
1.25889e-11
-6.6627e-14
-1.38501e-11
-1.46937e-11
1.7188e-11
1.50499e-11
-4.47031e-13
2.55983e-14
-1.28911e-11
1.06168e-11
9.77921e-13
-3.56478e-11
1.25613e-11
2.45933e-11
1.23919e-11
1.19246e-11
-3.42341e-12
8.73134e-13
-8.93902e-13
-1.75442e-13
1.65271e-13
-4.69757e-13
-2.59699e-13
-1.15052e-12
1.87002e-12
1.72731e-11
-3.38973e-12
4.45602e-11
-6.03308e-11
-5.39137e-11
8.05546e-13
1.62471e-12
-5.29897e-11
1.98019e-12
-9.67308e-14
-1.1643e-11
-3.7797e-12
-3.13553e-12
6.18875e-11
6.25045e-12
-1.88958e-12
2.89271e-13
2.75874e-11
-1.25155e-11
9.1574e-12
-4.33907e-12
4.33918e-12
5.45272e-14
1.46324e-11
9.02837e-12
1.44643e-13
-2.90731e-13
-2.22109e-11
3.01523e-11
-7.14878e-12
0
1.47405e-13
-1.17383e-13
-8.64207e-12
2.23929e-12
-9.72955e-12
3.29143e-11
2.57232e-11
9.05971e-13
-6.09345e-12
5.74418e-12
2.07879e-15
2.24543e-13
-1.29715e-12
-2.26712e-11
7.0006e-12
0
3.67331e-13
1.78475e-13
2.29953e-14
-1.34039e-13
-4.68778e-13
3.92335e-13
7.22799e-13
-3.48255e-13
-5.96255e-13
4.47369e-13
-1.81076e-13
-1.41806e-11
-1.04365e-11
1.3764e-11
1.03936e-11
-1.06016e-11
-2.46078e-11
-2.36724e-12
1.10379e-11
4.32039e-12
-5.61627e-13
1.19163e-12
-2.80242e-13
-8.65687e-14
-2.72805e-13
-8.4201e-14
2.41604e-13
-2.55514e-11
9.98505e-12
2.37618e-11
2.00114e-11
-4.32137e-14
1.15909e-12
-3.77701e-11
5.41001e-11
8.98164e-13
3.50995e-13
2.11866e-12
-3.24724e-12
-1.55921e-11
-2.93054e-12
-7.8177e-11
-1.09644e-11
-1.42791e-11
-1.45072e-11
-1.80761e-11
7.94995e-13
-2.86822e-11
1.4506e-13
-1.47976e-11
-3.21903e-12
-4.51733e-13
-1.78867e-11
5.80267e-13
1.45719e-13
2.16817e-11
-3.11975e-11
-4.80933e-12
-3.49734e-12
1.01857e-11
2.36218e-11
4.85266e-11
-2.34047e-11
4.42909e-13
-4.32278e-12
-6.45938e-13
6.03678e-13
-2.24272e-11
2.25207e-11
-3.34952e-13
-2.14871e-11
5.08787e-11
-2.97201e-11
0
2.56557e-11
1.31535e-11
2.66752e-12
7.82577e-15
-2.71403e-11
1.03151e-11
1.20615e-11
-1.56191e-11
-1.33667e-12
3.43097e-12
-1.49254e-13
2.01317e-13
-1.43305e-13
-5.11183e-13
-1.4159e-13
-4.43121e-14
1.06949e-11
1.11288e-11
-1.14915e-11
-1.14944e-11
-4.32732e-12
-1.05887e-11
-1.07264e-11
9.90864e-12
8.89217e-14
2.16181e-13
-7.97528e-14
4.04669e-13
-8.72735e-13
-1.29849e-11
2.59239e-11
-4.89401e-12
3.47313e-11
-5.78388e-13
6.74579e-13
4.64994e-11
-5.37471e-14
3.34891e-12
4.80707e-13
4.44542e-13
0
-9.81407e-14
2.62572e-13
1.52216e-12
4.69698e-12
2.92715e-13
2.23064e-11
1.90928e-11
-1.97218e-11
-8.19634e-12
0
5.3419e-13
-8.38908e-13
-1.46326e-13
-1.46374e-13
1.98147e-11
1.61836e-11
2.73676e-13
2.33649e-11
-4.84457e-12
1.80765e-11
2.12008e-11
-1.43637e-13
-3.40298e-11
8.89316e-12
1.40318e-11
1.41198e-11
2.68322e-11
-5.77038e-11
3.0511e-11
-3.9154e-14
3.76463e-13
-9.45031e-13
2.15131e-11
5.97249e-13
2.98556e-13
4.8021e-13
3.28764e-13
3.81571e-13
-5.80745e-13
-1.37716e-13
-1.32023e-11
-1.30165e-11
1.35867e-11
1.284e-11
0
7.94496e-13
2.74578e-13
-1.06664e-12
-1.03418e-13
9.11408e-14
3.79119e-13
-1.24542e-13
-3.98657e-13
0
5.22408e-12
2.33418e-11
1.19551e-12
-9.65501e-14
1.07771e-12
-1.59528e-12
5.94631e-13
3.6657e-13
-1.23547e-13
0
-5.2054e-12
2.83073e-11
4.05393e-11
6.60511e-13
4.87565e-11
3.97579e-11
1.54562e-12
1.17247e-12
4.53206e-11
-1.33922e-12
5.18338e-12
-1.2668e-11
-2.932e-11
2.58827e-11
-3.40879e-12
-5.77045e-12
4.90525e-12
-7.75508e-11
1.04341e-11
-7.10808e-12
2.95935e-13
9.66884e-13
-1.4537e-11
1.22439e-11
-3.70247e-12
0
3.71087e-13
3.52982e-11
-5.45723e-12
3.70626e-12
1.99342e-11
1.89683e-11
1.42137e-11
3.71216e-13
0
1.49303e-13
-1.65611e-13
-2.11614e-11
1.88037e-11
3.22537e-12
-2.31297e-11
2.1917e-11
9.09664e-13
-1.79625e-14
1.41887e-11
-1.62652e-11
2.98683e-12
1.91608e-11
-3.09592e-13
1.29969e-14
-5.78635e-14
5.68883e-12
-2.53582e-13
-5.35002e-12
0
1.04214e-11
1.13733e-11
9.23733e-13
-3.71776e-13
-7.90081e-13
1.96607e-14
2.48138e-11
3.31597e-13
-2.44779e-11
1.48878e-13
0
1.25791e-12
-1.60789e-13
-2.3707e-12
1.18661e-12
5.72196e-13
-2.0095e-13
3.23646e-13
-5.32202e-13
3.72153e-12
-7.57591e-12
3.92845e-11
-3.23736e-11
8.93309e-13
3.16755e-13
-2.53693e-13
-1.10064e-11
2.0156e-11
-1.96212e-11
0
-2.13528e-11
-4.26256e-11
2.39607e-11
2.46407e-13
-9.18068e-13
4.06314e-13
2.25817e-11
1.43582e-11
1.57465e-12
1.36468e-11
-1.942e-11
-1.46117e-11
-1.30053e-11
3.33353e-11
-2.90649e-11
3.36169e-13
-2.29965e-11
-1.12551e-11
-1.42502e-13
4.59728e-12
4.1511e-12
-7.46631e-12
5.09606e-13
-7.40489e-13
2.20603e-12
2.66687e-11
3.90716e-13
-4.04294e-11
2.70788e-11
-8.89886e-12
1.48309e-13
-2.3263e-11
3.27854e-11
1.34532e-11
8.61164e-13
1.90326e-13
-5.27111e-13
-1.26857e-11
-2.12962e-11
-3.70941e-12
-2.97167e-13
-3.4265e-11
3.79801e-11
-5.79627e-11
5.79202e-13
-4.81934e-12
-1.09114e-12
5.03309e-11
1.98593e-11
-3.27019e-12
-2.70947e-11
-4.63432e-11
2.05026e-11
-1.20424e-13
-2.69103e-11
2.70701e-11
1.20305e-13
-1.60633e-13
-5.25712e-13
3.12723e-12
2.97743e-13
2.16085e-13
2.33289e-13
1.22953e-11
-3.57831e-13
-4.97096e-14
7.77951e-14
-1.21352e-11
-5.96924e-13
-7.44531e-13
7.4233e-13
7.49953e-13
-1.90983e-13
-1.63028e-13
-3.38742e-14
1.38113e-11
1.10773e-11
-1.79396e-12
-1.10725e-11
-1.18773e-11
1.2462e-11
-1.64237e-13
-2.35915e-11
-1.76937e-11
1.15866e-11
1.71614e-12
-2.514e-14
2.98085e-11
-5.10402e-12
-1.9141e-11
1.4814e-13
1.00068e-11
8.93978e-13
-1.84616e-12
8.82026e-13
-5.88236e-13
2.93845e-13
2.79219e-11
-2.85056e-11
3.85385e-12
-1.47983e-13
9.2933e-12
-7.92954e-12
-7.1939e-14
8.32972e-13
-8.87228e-13
2.94639e-13
2.08074e-11
-1.032e-11
-5.9202e-13
1.02086e-11
-3.94729e-12
-1.23063e-11
-7.21379e-13
-4.73303e-12
1.49549e-11
-3.61541e-12
7.74516e-12
-9.59203e-13
-7.39871e-13
1.08009e-11
-3.94751e-12
-7.16075e-12
-4.88124e-14
1.14107e-11
-2.09097e-11
1.20512e-11
-8.0769e-12
-1.40569e-11
-3.99549e-12
1.48002e-13
-1.70769e-11
1.34717e-12
-2.36987e-11
-2.59523e-13
1.23653e-11
7.60478e-12
-8.47262e-12
-5.23774e-12
1.65791e-11
1.02232e-11
-2.84367e-12
-1.39236e-11
1.4896e-13
-9.16806e-13
9.5846e-13
2.57971e-13
-2.332e-11
-7.01738e-12
-1.0966e-11
-1.48373e-13
-3.92457e-12
-2.18777e-11
1.062e-11
-5.84288e-13
4.66911e-13
1.30253e-11
-5.57423e-13
-1.23171e-11
0
4.45377e-13
4.03823e-13
-3.48793e-13
1.21118e-11
6.66473e-14
-1.26471e-11
-2.83018e-13
3.46064e-13
6.53503e-14
0
4.44611e-13
1.71853e-13
5.7683e-13
4.07669e-13
8.76147e-12
-1.53644e-13
-1.91222e-11
2.87071e-13
9.74675e-12
-2.96402e-13
2.44396e-11
1.136e-11
-1.38552e-11
-6.31408e-13
-2.5991e-13
-1.2586e-12
1.80509e-13
1.14302e-12
-3.89472e-14
1.48118e-13
1.12481e-11
-1.07592e-12
-6.51166e-13
1.18395e-11
2.68648e-13
-2.23192e-13
1.37464e-11
1.42493e-11
-1.19045e-11
-1.1841e-11
1.71587e-11
3.88283e-13
-1.68519e-11
-3.68959e-12
-2.64452e-13
3.29881e-12
1.22795e-11
-2.83025e-14
-1.22436e-11
-1.4792e-13
0
1.68723e-11
2.02784e-13
-1.72443e-11
8.50351e-14
-3.174e-13
1.32719e-11
-2.01922e-13
-1.62488e-11
-2.07046e-12
-1.36073e-11
-2.55088e-13
1.35128e-11
4.0439e-13
2.08464e-13
-5.9939e-13
-1.16568e-12
-1.19279e-13
8.36491e-13
0
-1.44969e-11
-1.47616e-11
1.01238e-11
-1.43223e-13
-1.06923e-11
6.42046e-13
-1.16248e-11
3.91179e-14
1.13418e-11
-2.95839e-13
-5.92027e-13
-5.15473e-13
1.01308e-11
-1.89613e-13
-2.13937e-11
-2.29312e-13
1.1812e-11
-9.72131e-16
-1.00238e-11
-9.91634e-12
0
-3.82779e-14
1.74021e-13
-9.49666e-14
-1.15739e-13
1.25567e-11
-1.87144e-13
-1.24551e-11
1.30846e-13
-1.4812e-13
-2.81573e-12
1.12361e-11
1.41235e-11
-3.14531e-14
-2.16714e-13
1.65352e-14
3.68638e-13
-9.63062e-14
4.62847e-14
1.482e-13
2.96112e-13
-4.61773e-14
-1.3105e-11
7.42849e-12
1.29718e-11
-7.07144e-12
-2.60838e-13
1.16211e-11
-1.73275e-13
-1.1548e-11
-7.40034e-13
-1.74257e-11
-1.64925e-11
6.00512e-13
-5.45583e-13
8.86844e-14
8.50774e-13
6.18234e-13
9.55666e-12
9.32423e-12
-5.91781e-13
-3.80257e-13
-1.90893e-14
7.07258e-15
-1.0709e-13
-1.62056e-13
-3.16789e-14
5.78734e-14
1.1299e-11
1.09477e-11
9.76169e-12
5.37069e-13
-9.68943e-12
-1.08248e-12
1.6217e-13
4.61701e-13
-4.13004e-13
1.56998e-13
-7.43766e-14
-1.47892e-13
2.95779e-13
8.33771e-14
-1.64585e-13
1.16444e-13
-9.9554e-12
-1.5738e-13
9.98514e-12
-1.65824e-13
-5.05557e-12
-4.87976e-12
3.40143e-12
-1.07041e-11
-2.98855e-12
1.18348e-11
-1.06843e-11
-2.0675e-13
1.00135e-11
3.50682e-14
3.21545e-13
-1.47868e-13
-1.0649e-11
-1.09717e-11
-4.8253e-13
1.01257e-12
6.06522e-13
1.1643e-11
1.06023e-11
-2.37626e-11
-1.04538e-11
1.1535e-11
0
-6.11426e-13
1.50453e-14
7.47312e-13
4.4666e-14
-2.2761e-13
2.61846e-13
-3.12747e-14
-1.34476e-13
0
0
-5.52275e-14
-4.67287e-13
-1.12681e-11
5.57776e-13
1.16209e-11
-6.5019e-14
-3.40968e-13
1.13803e-13
0
8.58665e-12
-1.18264e-11
-1.02746e-11
1.15671e-11
1.42843e-11
9.71657e-12
-1.42297e-11
-1.07754e-11
-6.4293e-14
1.4804e-13
5.91907e-13
7.84965e-12
1.53261e-13
-7.40965e-12
-1.10112e-11
3.19069e-13
2.61284e-11
-5.35173e-13
-1.51663e-11
0
0
2.71149e-13
1.67085e-14
3.10854e-14
-2.3153e-13
-2.79468e-13
5.10439e-13
6.35344e-14
-5.1404e-13
0
-1.12419e-11
-1.19608e-11
-1.02131e-12
-4.26505e-13
5.1334e-13
4.96406e-13
-1.33091e-11
-2.56886e-13
1.33435e-11
0
1.47897e-13
1.47909e-11
2.66859e-13
-1.37631e-11
-1.64523e-13
-1.5026e-12
-1.67589e-13
4.4325e-13
-2.12797e-14
-1.47881e-13
-4.43663e-13
5.29256e-14
2.32257e-13
5.08608e-13
1.26854e-11
-3.76387e-13
-1.28716e-11
-1.52711e-11
-1.37018e-11
1.47866e-12
1.00565e-11
-3.90984e-14
-8.78751e-14
1.05275e-11
4.08264e-13
9.93738e-14
-5.87538e-13
1.12183e-13
-5.10187e-14
0
-1.21275e-11
-2.62067e-11
-2.50702e-13
1.39827e-11
4.05909e-13
-8.83538e-14
-2.75525e-13
-1.45685e-11
-1.16223e-14
1.44914e-11
-1.47913e-13
-1.47505e-11
-1.30764e-11
1.44948e-11
1.27447e-11
2.1828e-13
2.42957e-13
-6.3734e-13
2.57364e-13
5.91577e-13
-1.15396e-11
-1.14647e-11
1.1924e-13
-1.39011e-13
-1.14146e-13
-3.18064e-14
-1.34004e-11
3.15224e-14
1.34231e-11
0
1.47969e-13
-1.33588e-13
2.87526e-13
5.16652e-14
-6.69721e-13
-1.98209e-13
5.67355e-13
8.18525e-14
-2.8405e-13
-2.95913e-13
-1.21303e-11
-5.93276e-13
1.15314e-11
1.44463e-13
2.64437e-18
-2.40494e-13
3.55826e-13
1.54856e-13
-9.50576e-14
0
-2.95833e-13
4.37874e-14
-1.83114e-12
-2.6882e-13
2.24866e-12
-1.19647e-13
1.57707e-13
3.46454e-14
-3.26041e-14
1.47904e-13
1.06487e-11
6.95491e-14
-1.06398e-11
1.43069e-11
5.63951e-13
-1.42225e-12
-1.73579e-12
-1.28703e-11
1.47063e-11
1.34576e-11
0
-1.10646e-11
6.58411e-14
1.1065e-11
5.30003e-13
8.92895e-14
-1.34213e-11