/*--------------------------------*- C++ -*----------------------------------*\
  =========                 |
  \\      /  F ield         | OpenFOAM: The Open Source CFD Toolbox
   \\    /   O peration     | Website:  https://openfoam.org
    \\  /    A nd           | Version:  10
     \\/     M anipulation  |
\*---------------------------------------------------------------------------*/
FoamFile
{
    format      ascii;
    class       volScalarField;
    location    "0.6";
    object      gradTy;
}
// * * * * * * * * * * * * * * * * * * * * * * * * * * * * * * * * * * * * * //

dimensions      [0 -1 0 1 0 0 0];

internalField   nonuniform List<scalar> 
47104
(
4.37803e-13
4.37779e-13
2.88613e-13
-9.20384e-15
-4.45675e-13
2.97116e-13
1.48618e-11
3.07238e-13
-2.88822e-13
-1.14895e-11
6.04907e-13
4.36832e-13
6.59484e-13
5.02192e-12
-2.60679e-13
-5.6433e-13
-1.32504e-13
-1.50007e-13
1.2345e-13
4.57668e-13
1.04202e-11
6.87992e-13
3.60929e-14
2.0725e-13
5.22688e-13
1.47912e-14
-1.50211e-11
-1.04742e-12
-4.27947e-14
1.13812e-11
5.34142e-15
3.07703e-13
-9.81717e-14
-4.95128e-12
2.77753e-13
5.3859e-13
4.8656e-14
1.52156e-13
-3.02521e-13
-4.1155e-13
-1.0732e-11
-7.02995e-13
1.07631e-12
-1.17306e-13
1.16798e-12
1.0894e-13
4.38218e-12
3.83547e-13
1.13808e-11
-3.62361e-13
-3.62394e-13
1.0367e-11
-3.46931e-13
2.46253e-15
-1.3222e-13
-2.94533e-13
-1.97595e-14
1.27164e-13
2.73e-12
1.26568e-13
9.20985e-14
4.6937e-13
-8.13925e-13
-3.97106e-13
-1.60932e-11
2.44905e-14
-4.53008e-12
-8.60003e-14
-1.15228e-11
5.17431e-13
1.98883e-13
-1.02825e-11
-4.24623e-14
7.96301e-13
3.40506e-13
2.51101e-13
-1.00785e-13
1.19812e-11
-2.90841e-12
1.21702e-11
-2.16963e-14
-2.49076e-13
3.93459e-13
1.60857e-13
1.52943e-11
-1.1306e-11
-1.58003e-14
-7.30396e-13
-1.06467e-11
-5.68834e-13
9.51284e-15
1.39735e-13
4.37336e-13
-7.34223e-13
1.48533e-13
-1.15858e-11
1.57886e-13
-1.23693e-11
-1.05927e-11
-1.20671e-11
-8.91003e-14
0
-1.88157e-11
-6.86444e-12
1.49178e-13
-1.49177e-13
1.61164e-11
1.04529e-11
-1.23956e-11
6.01163e-14
-9.87278e-12
-8.92093e-14
1.05877e-11
6.28121e-12
3.36548e-12
-3.70202e-12
-5.00998e-12
-3.51672e-12
1.55709e-13
-4.41381e-13
-4.83715e-14
-1.14037e-13
1.82171e-11
1.29051e-11
-4.89917e-13
-2.49477e-13
-2.06641e-11
-1.39835e-11
1.06163e-12
-1.1717e-11
1.01433e-11
7.22229e-14
-6.25531e-14
-2.46029e-11
1.44404e-12
3.13597e-11
-9.10005e-15
1.97947e-13
1.71751e-13
-1.27291e-11
-1.04037e-11
-1.06784e-13
2.80558e-11
2.51978e-11
-1.03762e-12
-3.13603e-11
7.5017e-13
2.29084e-13
-2.39199e-12
1.45153e-12
-1.08458e-11
1.49463e-11
-2.72161e-11
-1.0435e-13
8.44451e-13
4.53536e-14
-5.98503e-13
-4.41865e-13
-1.22583e-11
2.35971e-11
1.06625e-11
-1.62343e-13
-2.28442e-11
-2.05887e-11
2.29464e-11
2.38499e-13
3.70448e-13
3.07323e-13
1.35378e-11
1.04373e-11
1.06471e-11
-4.04175e-12
2.22784e-11
2.08531e-11
-2.38151e-11
-1.06228e-12
1.8806e-13
-6.00728e-14
1.21704e-11
-2.1706e-11
-1.89758e-13
-2.02672e-13
3.02993e-12
-8.1119e-12
-1.12168e-13
-1.33857e-11
-1.47667e-11
-3.36682e-13
-7.84674e-14
-8.66313e-14
0
-1.09007e-11
-9.7039e-12
-2.9838e-13
4.47445e-13
-1.61086e-11
-1.05935e-11
1.19447e-12
2.98674e-13
1.02956e-11
2.09334e-13
5.82197e-12
-1.43174e-11
-1.46024e-11
-6.25948e-12
-4.47107e-13
1.04303e-12
-1.49134e-13
5.37364e-12
6.01426e-14
-4.9335e-12
-3.28912e-11
-2.72114e-11
-2.02206e-11
3.89088e-12
6.45519e-13
-1.93597e-12
-3.44167e-13
1.74851e-13
1.29691e-13
-2.30645e-13
2.07065e-11
-8.60133e-12
9.112e-11
1.62506e-10
1.72381e-10
1.68211e-10
-1.38418e-11
-1.77156e-13
-2.44903e-13
5.21542e-12
-9.3534e-13
7.87773e-12
-1.5222e-07
-2.03284e-07
-2.08498e-07
-1.77995e-07
-4.08544e-09
-5.84779e-13
-5.63015e-14
-2.64721e-13
5.93017e-13
-2.61946e-11
-1.22957e-08
2.76966e-08
2.93993e-08
2.19545e-08
-7.6858e-10
-2.65924e-14
3.62899e-15
-3.27292e-14
2.38697e-13
2.69242e-11
2.80991e-09
-6.23177e-09
-6.6928e-09
-4.90878e-09
1.89003e-10
2.64299e-13
6.87263e-14
4.6866e-13
-1.44193e-12
3.27715e-12
3.62738e-08
-7.72156e-08
-8.08319e-08
-6.34201e-08
2.18206e-09
-3.71992e-11
-2.97838e-13
-5.94027e-14
8.57539e-13
-2.9593e-12
1.0458e-08
1.54787e-08
1.58457e-08
1.4681e-08
-4.8844e-10
6.41299e-11
1.67203e-13
4.36654e-14
-2.98428e-13
1.03239e-13
-2.26027e-11
-2.49072e-13
-3.40897e-13
2.83058e-14
2.71454e-11
-2.66601e-11
1.97598e-13
1.49184e-13
-1.31327e-11
1.58028e-11
-8.04383e-12
8.04627e-12
-4.47036e-12
-8.93881e-13
1.13326e-11
3.88072e-12
-2.98375e-13
-1.14614e-11
-2.97288e-13
-4.42999e-13
-1.04164e-11
-6.73911e-12
2.56381e-11
-4.69483e-12
-4.28183e-12
-7.43067e-12
-1.33941e-11
-1.16967e-11
-1.56083e-13
-9.60891e-12
8.38369e-09
8.01911e-09
7.99173e-09
8.16282e-09
5.57632e-09
-2.11989e-11
-1.71231e-13
1.00056e-13
-2.9601e-13
-3.06023e-09
4.08033e-05
4.21912e-05
4.24865e-05
4.19504e-05
4.21786e-05
5.81605e-09
1.94855e-12
4.80752e-13
-4.233e-11
-1.67731e-07
-0.808904
-1.24311
-1.24946
-1.23381
0.140685
1.36137e-08
1.34652e-14
-1.18818e-11
-1.05004e-11
-3.9101e-10
-0.00515844
-0.0174975
-0.0182401
-0.0166257
-0.00833512
4.90901e-10
1.14806e-11
-2.04313e-13
4.40838e-12
1.30023e-09
0.00032563
0.00103816
0.00108967
0.000979345
-0.00930756
-1.08253e-10
1.18167e-13
2.2763e-11
2.26158e-11
8.45437e-09
0.0139046
0.0495913
0.0509215
0.0477222
-0.0100612
-2.34449e-09
1.17475e-14
-4.04856e-13
3.83914e-11
4.19672e-07
0.646681
0.838216
0.841313
0.832125
-0.146181
-2.10131e-08
-1.58904e-13
-1.03865e-11
2.64375e-13
9.14604e-08
2.0019e-06
1.76402e-06
1.75231e-06
1.80868e-06
9.72852e-07
7.54323e-12
3.3168e-14
-1.48842e-13
-5.94368e-13
1.99277e-11
1.02671e-11
1.47944e-11
6.00601e-12
5.868e-12
-1.47648e-13
1.76861e-11
2.977e-13
-1.29339e-11
4.45245e-13
-4.70232e-12
-2.03218e-11
-2.54451e-11
-2.31331e-11
-1.05988e-11
4.55567e-12
-4.45151e-13
-2.82407e-12
-1.52231e-11
6.51133e-13
-2.92287e-10
-8.70396e-08
-2.08932e-07
-2.00122e-07
-2.27138e-07
6.28018e-09
-6.74007e-14
-1.61819e-11
1.27146e-11
2.36061e-12
-1.75417e-06
-0.71066
-0.863642
-0.865267
-0.861416
0.0179103
1.98949e-08
2.88244e-12
1.46481e-11
1.16434e-09
0.0196248
8.73985e-06
1.65281e-11
-5.485e-14
5.83473e-10
0.000514482
6.66459e-07
1.70952e-11
1.24261e-13
-1.12333e-10
0.000115087
-1.11307e-07
-6.24569e-13
-1.24797e-13
-1.4622e-09
-0.000944887
-2.88999e-06
-1.73362e-11
2.23654e-13
1.51811e-10
0.000892268
1.54475e-06
2.3993e-13
-2.52024e-13
-2.34225e-11
6.03277e-07
0.000500739
0.000651092
0.00065247
0.000645894
-4.02185e-05
3.07674e-10
4.68501e-14
-1.4865e-13
4.00566e-12
5.87608e-13
1.40774e-11
1.21428e-11
2.38544e-11
4.34087e-11
-9.40507e-12
1.85501e-11
-1.48668e-13
-1.02607e-11
-1.78272e-12
0
-1.02976e-11
-2.49688e-11
-3.24768e-11
-1.79925e-11
1.29454e-11
9.06169e-12
0
-1.43899e-13
3.33566e-12
-3.229e-10
-6.12716e-08
-2.22197e-07
-2.10895e-07
-2.45263e-07
6.98711e-09
-7.09045e-12
1.19173e-11
1.01763e-11
5.64085e-12
-1.86347e-06
-0.730946
-0.901558
-0.903832
-0.898347
0.0189559
2.09945e-08
-1.0261e-11
9.50403e-14
1.01284e-09
0.0244691
1.02516e-05
-1.19298e-11
1.90844e-13
7.74142e-10
0.000658087
9.3841e-07
1.16127e-11
-2.02151e-13
-1.13332e-10
8.23477e-05
-1.53224e-07
1.12884e-11
1.11462e-11
-1.96891e-09
-0.00250739
-3.84638e-06
-4.01272e-12
9.66485e-12
8.67796e-11
-0.000871522
1.73958e-06
-1.11378e-11
-1.14691e-11
4.86286e-13
6.22927e-07
0.000514607
0.000719728
0.00072203
0.000696953
-1.75723e-05
3.70033e-10
3.1434e-12
-9.66437e-12
0
0
2.88578e-11
2.74191e-11
2.49685e-11
1.52318e-11
5.88231e-12
2.4659e-11
-2.9742e-13
-1.04154e-12
-5.05541e-12
1.76608e-12
-9.5783e-12
-2.29588e-11
-1.9784e-11
-1.40837e-11
-4.12252e-12
3.71709e-12
1.17526e-11
-1.76921e-11
-6.51677e-12
-3.72238e-10
-5.1124e-08
-2.09146e-07
-1.97155e-07
-2.34192e-07
7.01861e-09
5.98688e-14
-6.47391e-14
-1.50065e-13
2.73764e-11
-1.86387e-06
-0.731887
-0.903283
-0.90565
-0.899981
0.0189769
2.10337e-08
-1.20897e-11
1.64205e-11
8.59496e-10
0.0244768
1.03717e-05
-1.17075e-11
-1.5517e-11
8.47548e-10
0.000675383
9.75251e-07
1.16604e-13
1.42724e-13
-1.15789e-10
6.46683e-05
-1.59727e-07
1.15142e-11
1.60053e-11
-2.04045e-09
-0.00131186
-3.9198e-06
1.5216e-11
-2.41729e-13
1.28768e-10
0.000982687
1.74529e-06
-3.0284e-13
-1.55597e-13
-2.70183e-11
6.24088e-07
0.000515751
0.000722445
0.000724952
0.000710543
-4.32962e-05
3.68295e-10
-1.49967e-11
1.48765e-13
-1.41195e-11
1.20651e-11
2.17657e-12
3.65273e-11
3.60969e-11
1.21914e-11
-8.2417e-12
4.75773e-12
-1.48797e-13
0
2.36537e-11
-3.68151e-12
-1.71361e-11
-2.93325e-11
-4.78322e-11
9.00762e-12
1.47321e-13
-3.71915e-12
-5.9536e-13
7.45202e-14
2.98973e-11
-3.44034e-10
-4.99353e-08
-2.08364e-07
-1.96348e-07
-2.33641e-07
7.02315e-09
2.90083e-12
-5.42586e-13
-3.62217e-13
2.97652e-12
-1.8227e-06
-0.731892
-0.903429
-0.905807
-0.900117
0.0189772
2.08783e-08
1.10895e-11
-1.41051e-13
2.73108e-09
-0.0027167
1.0377e-05
1.53854e-13
6.84514e-13
9.49023e-10
0.00107961
9.76111e-07
-1.08503e-11
-1.33598e-11
-8.92612e-11
7.02061e-05
-1.59895e-07
-9.3123e-14
3.35986e-13
-2.04176e-09
-0.00127485
-3.92445e-06
-2.18384e-13
1.3906e-11
1.36382e-10
0.000984039
1.74619e-06
1.9761e-13
-5.96612e-14
-2.22734e-11
6.21594e-07
0.000515983
0.000722705
0.000725177
0.00070887
-4.28644e-05
3.43534e-10
1.34943e-13
1.48836e-13
8.32749e-12
-1.50165e-11
2.09085e-11
3.74196e-11
3.03435e-11
2.52729e-11
4.41812e-13
5.20672e-12
1.4887e-13
-4.46712e-13
-8.78036e-12
-4.71543e-12
-1.33765e-11
-1.50507e-11
-2.92351e-11
-2.28354e-11
-7.95989e-12
3.72052e-12
-2.97795e-13
-5.82085e-13
-3.90209e-12
-3.46578e-10
-5.67025e-08
-2.17665e-07
-2.06266e-07
-2.41355e-07
7.01563e-09
-4.82913e-13
-2.56872e-13
4.92226e-14
-8.80094e-13
-1.80871e-06
-0.73164
-0.902756
-0.905078
-0.899483
0.0189799
2.08549e-08
4.43121e-14
2.76997e-13
2.99339e-09
-0.00450278
1.02715e-05
-2.34248e-14
1.1215e-11
9.46709e-10
0.00103657
9.4043e-07
1.16536e-11
-3.46155e-13
-1.21278e-10
8.03031e-05
-1.52712e-07
-9.48631e-13
-1.17027e-11
-2.00223e-09
-0.00125274
-3.84549e-06
-1.15693e-11
2.91017e-13
1.01572e-10
0.000981963
1.74452e-06
6.89148e-13
6.72547e-14
3.84266e-11
6.1865e-07
0.000515957
0.000721005
0.000723323
0.000698663
-1.75687e-05
3.67204e-10
-4.85014e-13
1.48892e-13
-4.01655e-12
-3.53549e-12
1.94796e-11
1.69299e-11
2.3878e-11
1.83227e-11
4.12617e-12
0
-7.44626e-13
-1.51907e-11
3.27478e-12
5.89948e-13
1.92367e-11
-1.88707e-12
0
2.18633e-12
-4.72025e-12
-2.14358e-11
1.48938e-13
-1.43463e-11
6.848e-13
-3.38015e-10
6.04094e-10
-1.81691e-08
-7.88666e-09
-4.72724e-08
5.74575e-09
-4.86203e-11
1.06999e-11
3.01382e-12
2.97621e-12
-1.84691e-06
-0.719889
-0.876844
-0.878653
-0.874344
0.0181987
1.86343e-08
1.40156e-11
1.40064e-11
1.20211e-10
0.0207297
7.31166e-06
-1.0671e-11
3.34228e-13
6.11546e-11
0.000535971
5.27044e-07
-1.42949e-11
3.83948e-13
-1.62262e-11
7.13251e-05
-8.5314e-08
2.61938e-13
2.26617e-11
-3.36001e-10
-0.000937176
-2.1414e-06
3.11712e-12
-3.41172e-13
9.27848e-11
0.000942352
1.35828e-06
2.60952e-13
-1.1343e-11
-5.90198e-12
6.09677e-07
0.000437609
0.000501973
0.000502533
0.000503461
-3.86816e-05
3.25597e-10
-2.85961e-12
0
5.65457e-12
2.94872e-12
1.47153e-11
-4.20899e-12
-1.16118e-12
-2.37528e-11
-2.1826e-11
0
-4.46885e-13
0
5.95421e-13
-3.68785e-12
-1.44303e-11
4.5002e-12
-1.30647e-11
4.08062e-12
-3.09736e-12
-4.46621e-13
-2.68119e-12
3.13892e-14
-3.60994e-13
2.92408e-11
2.23936e-10
2.38086e-10
1.95089e-10
2.25273e-10
-1.16318e-10
-1.58409e-11
2.10758e-14
2.99539e-14
2.97635e-13
-8.13251e-08
-0.000134821
-0.000140549
-0.000140683
-0.000140463
-0.000125419
2.72205e-10
2.61096e-12
1.09307e-13
-2.95997e-12
1.03348e-06
-4.31832e-09
1.29073e-11
1.68312e-13
-2.32882e-11
2.08602e-08
-3.06805e-10
-4.13889e-14
-1.08159e-11
2.24646e-11
5.77566e-09
2.13571e-11
-2.61811e-11
1.91365e-13
1.39997e-12
-5.67003e-08
1.15624e-09
9.27826e-14
1.03277e-11
-1.47379e-12
-4.88131e-06
2.25966e-09
1.3378e-11
-3.1085e-13
4.64829e-13
1.37391e-08
-4.52345e-07
-4.7397e-07
-4.75471e-07
-4.68955e-07
-1.32298e-07
4.69025e-12
-1.49917e-13
0
-3.72032e-12
-5.89776e-13
1.38418e-11
-1.7127e-11
4.20959e-12
8.59887e-12
4.27715e-12
-2.38187e-12
1.48971e-13
-2.82939e-12
-1.02694e-11
1.07613e-11
2.90917e-13
5.78976e-12
-4.7763e-12
-1.22149e-11
2.94762e-13
-9.52704e-12
1.4895e-13
-1.56075e-11
-3.58256e-11
-1.17035e-12
1.68466e-13
2.02338e-11
-1.8425e-13
1.01906e-11
3.24202e-13
8.98798e-12
-1.13268e-11
-1.29463e-11
2.2326e-11
-2.18436e-11
4.78893e-11
-2.25118e-11
-1.58728e-12
-2.92524e-13
2.73187e-11
3.01772e-13
-4.65919e-13
-2.61304e-13
3.03432e-11
2.37313e-11
8.16792e-13
1.1172e-11
-1.42497e-13
-3.09248e-11
-9.49456e-13
-2.11552e-11
7.77308e-14
2.6919e-13
9.31561e-14
2.41275e-13
2.14099e-11
-1.06727e-11
-1.11449e-11
2.43819e-11
3.33971e-12
-6.75478e-12
-1.7035e-11
1.01368e-13
-2.41133e-11
-4.36601e-11
3.57733e-11
1.08968e-11
1.07761e-11
2.88377e-13
-2.18879e-11
-1.0155e-11
-1.6675e-11
8.27885e-12
-4.37396e-12
-1.86804e-11
-2.97993e-11
1.71607e-11
-5.95753e-13
-1.75579e-11
-2.3723e-11
-3.92591e-12
5.64416e-12
4.77666e-12
-2.90952e-13
-2.52068e-11
-9.97258e-12
1.48958e-13
-1.48902e-13
1.81546e-11
-1.85642e-11
7.26523e-13
1.73459e-11
-1.27197e-11
1.27838e-11
-4.41957e-13
4.01872e-12
-1.1915e-11
-1.25678e-13
9.00443e-12
-1.5567e-11
-2.98077e-13
1.65948e-11
2.0939e-13
1.30539e-11
-2.33691e-11
1.88987e-12
-1.89642e-11
2.23237e-13
1.19158e-12
3.36234e-13
-1.39957e-12
2.55572e-11
1.82152e-12
-2.88313e-13
1.61287e-11
-2.11366e-12
1.1692e-11
1.70896e-11
5.00627e-13
-1.74329e-12
-2.16126e-11
1.85274e-11
-8.53281e-14
-2.11036e-13
5.89732e-13
4.8718e-11
-3.95759e-13
-1.35717e-12
8.09648e-15
4.26571e-11
-2.67096e-11
-1.499e-11
-1.18398e-12
-5.4746e-13
1.16822e-11
-3.24038e-13
8.93946e-13
-2.32997e-11
-5.88527e-13
3.01673e-11
-1.66886e-11
2.1838e-12
1.09727e-12
3.52549e-13
6.40979e-11
3.77983e-12
-2.32123e-11
-3.51432e-11
-7.15149e-12
6.2052e-12
1.01708e-11
-1.16798e-13
7.14829e-12
2.97563e-13
-7.36449e-12
1.59788e-12
4.33583e-12
7.08279e-12
-8.71871e-13
2.21001e-11
-8.92898e-13
1.29578e-11
0
5.95208e-13
4.56703e-12
1.30752e-11
2.89031e-13
-1.44507e-13
-2.26579e-11
1.47302e-11
1.04181e-12
-4.46793e-13
5.58469e-13
7.79856e-13
-2.68727e-12
-8.51019e-14
-2.77728e-11
-1.33822e-14
-4.20694e-12
1.50413e-11
-1.93663e-12
-1.83384e-13
-1.03883e-11
0
-1.61312e-11
2.45115e-13
3.91631e-11
4.52508e-11
-1.98197e-12
7.20131e-13
-3.02003e-13
-1.58596e-11
-2.47211e-13
4.79754e-13
5.81181e-12
1.40836e-13
-1.24629e-11
1.03237e-11
-2.45759e-11
6.48911e-11
-4.53079e-13
1.56015e-11
1.04428e-13
2.21758e-11
5.07893e-13
1.49839e-13
1.21859e-11
-1.43786e-11
1.90623e-12
2.57367e-13
-2.05708e-13
6.34953e-13
-1.55389e-13
2.94407e-13
-4.36856e-11
7.29402e-13
-1.49911e-11
1.48505e-11
3.69579e-15
-8.24581e-12
2.13679e-11
-2.93078e-12
7.34117e-13
2.91805e-13
6.56896e-13
-4.37241e-13
-8.7266e-13
1.4891e-13
-1.48773e-13
2.23847e-11
1.68461e-11
-2.05176e-11
5.05739e-12
-4.64775e-12
-2.94576e-13
-1.488e-13
1.41485e-11
4.46681e-13
-4.16659e-12
0
-2.90671e-13
-2.89151e-13
-4.48153e-12
2.46983e-12
-1.0312e-12
1.87523e-11
6.10622e-12
4.56446e-13
6.09361e-13
9.91235e-12
2.56673e-11
-2.6393e-13
8.80375e-12
9.13314e-13
1.37918e-12
1.20801e-11
-4.77209e-12
1.45271e-11
2.97772e-13
-5.08794e-11
-3.44923e-11
-5.4087e-11
2.82778e-13
-3.84303e-12
-4.59516e-11
2.95916e-11
5.17814e-14
1.11788e-11
5.18036e-13
-5.17169e-11
-6.19241e-11
1.09595e-11
-1.43157e-11
1.94997e-11
-2.94938e-12
3.43118e-11
-8.06756e-14
-1.06209e-11
4.19179e-12
4.87345e-11
9.2096e-13
-1.18743e-14
-1.1751e-13
-2.40819e-11
-3.06912e-13
-9.98363e-13
2.89482e-14
4.25959e-14
-8.76599e-13
3.82223e-13
-2.08216e-11
-2.23276e-13
-7.69707e-14
-8.55776e-13
-2.54013e-11
-8.79413e-12
-1.56032e-11
-5.87161e-13
-2.68426e-11
-1.6617e-11
2.17184e-11
-1.503e-11
-1.4891e-13
-4.46322e-13
4.41849e-12
4.79372e-12
4.3364e-12
0
4.50333e-12
-4.41876e-13
-1.48802e-13
-1.44466e-11
0
0
-2.94827e-13
2.91028e-13
3.47596e-12
-3.47575e-12
1.4547e-13
4.71619e-12
3.57216e-12
1.48946e-13
-5.66588e-15
5.67092e-13
1.12506e-11
-2.58132e-11
-7.49376e-12
-8.92521e-13
-8.17122e-14
1.06847e-12
2.65345e-11
-8.19633e-14
-1.16278e-11
2.97992e-13
1.67602e-12
-1.91819e-11
1.96437e-13
-1.84182e-11
-2.59258e-13
-1.59814e-11
-2.65513e-11
-1.31136e-11
-4.16108e-13
-6.71951e-14
-1.22859e-10
3.51613e-13
-8.73603e-14
1.16885e-11
-4.07025e-13
-5.12905e-11
4.46847e-14
9.24521e-12
2.65185e-13
-2.50937e-13
-1.32494e-13
7.20731e-14
0
-1.31944e-11
1.95707e-12
-6.83467e-13
-3.41524e-14
3.94592e-12
9.44361e-14
6.73588e-13
4.30492e-12
-4.00665e-11
-2.17606e-13
1.30993e-11
-2.02886e-13
2.02921e-11
-7.98583e-13
-1.96782e-11
1.09934e-11
8.23317e-12
1.02406e-12
4.18281e-11
-1.55579e-11
1.48925e-13
1.48788e-12
2.35761e-12
5.81811e-13
-1.05706e-11
-1.57837e-11
7.27251e-13
2.9471e-12
-3.42286e-12
-1.54909e-11
-1.29571e-11
2.97705e-13
-2.95036e-13
0
0
-3.19517e-12
2.91569e-13
1.47512e-13
-1.62287e-11
2.97947e-13
-2.95908e-12
3.03399e-14
1.28415e-13
4.1011e-13
-3.80113e-13
-1.16005e-12
-2.33813e-12
-5.49265e-13
7.74411e-12
-1.66955e-13
1.31192e-11
8.92472e-13
-6.16384e-11
-1.76397e-11
2.2706e-11
1.93746e-12
4.07105e-12
-2.3359e-11
-3.80787e-11
-4.73315e-13
2.08399e-12
2.28463e-13
-4.98649e-13
9.82021e-12
-3.3882e-14
-3.61363e-13
-2.85131e-11
-4.10308e-13
5.29564e-13
4.61401e-13
6.38801e-13
2.87872e-11
-4.85867e-11
-8.94831e-14
2.10599e-13
4.61033e-13
4.53064e-13
-3.75836e-14
2.94178e-11
-4.37023e-13
6.65868e-13
4.98212e-13
-9.31298e-13
-2.99043e-11
5.58865e-14
-1.58181e-13
2.24552e-13
-1.20691e-12
4.22923e-12
-2.80055e-12
8.26883e-12
-1.76188e-12
9.42229e-12
4.8279e-13
-1.1025e-14
-5.9584e-13
2.20283e-11
8.84916e-13
-1.34109e-11
-4.50165e-12
0
3.78973e-12
1.68126e-11
6.40135e-12
-2.97966e-13
1.14694e-11
1.48879e-13
1.03265e-12
-1.45701e-13
5.65766e-12
-4.06183e-12
-1.45683e-13
5.60537e-12
-3.87158e-12
4.32059e-12
7.13689e-14
2.31381e-13
-2.32347e-11
3.2898e-11
2.54293e-13
2.54967e-13
2.13357e-13
-2.35944e-11
-1.68722e-13
4.83242e-12
4.91293e-12
2.97807e-13
3.85781e-11
-2.37155e-11
-3.17265e-11
3.74372e-11
-3.12468e-12
4.10437e-11
2.17426e-11
4.19961e-13
-5.90517e-13
2.06018e-11
-2.09251e-12
5.15718e-13
-3.19044e-13
-1.70335e-11
-2.00254e-11
-2.71602e-12
-2.15489e-11
1.74779e-11
8.27301e-14
-3.45517e-13
4.32952e-11
-7.46247e-13
-7.5867e-13
-1.40848e-13
-1.88638e-13
1.69135e-13
1.14723e-15
-1.72843e-11
4.653e-13
0
4.61862e-13
2.92884e-13
8.05991e-13
2.0734e-13
3.37338e-13
3.94394e-12
-9.70143e-12
1.30462e-11
-1.43234e-11
7.19552e-12
5.12497e-13
1.3191e-13
6.61477e-14
-1.48979e-13
-1.22071e-11
-1.32724e-11
4.51511e-12
-7.25208e-13
0
-3.78676e-12
1.47472e-13
1.48896e-12
-1.49003e-13
1.87678e-11
3.42364e-12
-4.57e-12
-1.45423e-11
-1.01282e-11
-9.40476e-12
1.33787e-11
-2.46182e-11
1.93538e-12
0
-3.32824e-14
-7.29237e-13
-1.00953e-12
7.75082e-12
7.83142e-12
3.96274e-11
6.70992e-12
2.06986e-11
9.71596e-12
7.05956e-13
-1.87547e-11
8.9366e-13
-8.85359e-14
-9.56922e-13
2.87721e-12
-4.04077e-11
-3.11304e-12
-3.62408e-11
-3.01964e-13
6.50433e-14
-4.86043e-13
-2.02741e-13
-1.27422e-11
4.26858e-12
-8.40102e-13
-1.29458e-11
2.73739e-13
-3.68269e-13
-3.1506e-11
5.12763e-12
3.97034e-13
-3.33585e-13
-2.13491e-12
2.736e-11
-3.22681e-13
4.87963e-13
3.5852e-14
-7.54429e-13
1.44019e-13
-2.25065e-11
1.87728e-13
5.55898e-13
9.88774e-14
-8.77822e-12
-1.44097e-11
1.23656e-11
-2.51244e-11
1.05547e-11
1.42331e-11
7.2427e-12
-1.01876e-11
-6.33928e-12
2.55136e-11
1.03863e-11
1.79598e-11
1.48969e-13
4.31625e-12
-4.42065e-12
-2.44208e-11
-1.44661e-13
8.969e-12
-4.21551e-12
-8.10489e-12
0
1.48999e-11
1.48964e-13
1.48847e-13
-1.57679e-11
1.90374e-11
1.44573e-13
5.92767e-12
-3.63342e-12
1.32641e-11
3.57291e-12
4.46931e-13
1.33424e-13
-1.9236e-14
-1.41819e-11
3.43047e-11
2.91445e-13
1.32326e-11
6.53432e-13
-2.0114e-11
2.24188e-11
1.17761e-11
-1.07343e-13
2.97761e-13
-2.03572e-11
-2.70876e-11
1.86745e-12
-4.82292e-11
2.12388e-11
7.90003e-11
-2.11451e-11
-1.83861e-13
7.43586e-14
-3.60154e-13
-2.31951e-12
6.01896e-14
-1.18649e-11
-1.29884e-13
-4.58796e-13
4.12854e-11
-2.08191e-11
9.45823e-14
-1.31466e-11
8.54293e-13
6.42337e-11
2.11857e-11
-1.65686e-11
-8.91421e-14
-2.13255e-13
1.01145e-12
-1.92599e-13
-1.03046e-11
1.36638e-11
3.93815e-13
1.67261e-12
-5.26016e-13
1.68021e-11
-1.14005e-13
8.1649e-13
-2.64281e-11
-1.98425e-11
7.32551e-12
3.66976e-13
-1.561e-11
8.98649e-13
-7.57841e-13
1.0567e-11
0
-8.92979e-13
1.046e-11
5.23014e-12
2.37061e-11
-2.74644e-12
1.00244e-11
2.01839e-11
4.31703e-12
-1.49011e-13
-1.78826e-12
-4.46698e-12
4.71696e-12
1.45375e-13
1.44649e-13
-2.03965e-11
2.90812e-13
5.7498e-12
1.04241e-12
1.68399e-11
1.08549e-11
-2.78881e-13
-9.09163e-12
-3.36864e-13
-6.33555e-12
-6.86104e-12
2.41001e-12
-2.21007e-12
2.59219e-11
-2.12263e-14
2.50185e-11
2.97767e-13
-1.81883e-12
-1.99312e-12
4.72555e-12
-4.80456e-11
1.30916e-11
1.44e-13
-5.28587e-11
-1.59955e-11
2.42492e-13
1.12664e-13
0
2.67674e-11
1.75303e-13
-1.18805e-11
7.28252e-13
5.89879e-13
-2.30727e-13
9.66847e-12
-2.82535e-13
-7.85911e-13
5.77452e-12
5.4029e-13
-1.96934e-13
1.83479e-13
5.53689e-14
4.75871e-11
-8.54811e-13
3.72712e-12
3.23392e-13
-7.11131e-12
1.84356e-12
1.46365e-12
2.0102e-11
-6.8927e-14
3.56893e-11
-3.84939e-12
8.94053e-12
1.47989e-11
-2.55442e-11
-1.69242e-11
-4.8012e-12
-1.8942e-13
-1.40192e-11
0
-1.13144e-11
-6.18986e-12
-4.94198e-12
1.66324e-11
7.80996e-12
1.88953e-12
-1.47378e-13
-1.90602e-11
-2.0273e-11
0
-1.02833e-11
4.42856e-12
7.2858e-13
-3.7717e-12
3.91701e-12
-1.45758e-13
4.28197e-12
0
1.23779e-11
1.13971e-11
-6.4677e-12
-1.73441e-13
1.58669e-13
-6.03008e-13
5.41928e-13
-8.86462e-13
-1.7618e-11
-4.28919e-13
1.25177e-11
-9.74575e-14
3.07809e-11
-2.16379e-12
-3.04592e-12
-7.1117e-14
2.7557e-11
1.11364e-12
1.68285e-11
2.11389e-12
-1.37791e-13
4.3537e-12
-3.05446e-11
-1.73889e-11
-3.18859e-13
1.37966e-11
-1.53678e-13
3.77404e-13
-2.11706e-13
2.94683e-11
-6.61946e-13
-3.11211e-11
-1.26283e-14
4.44272e-11
-3.07737e-11
-2.61763e-11
2.8668e-13
2.3892e-13
5.52848e-13
-6.26859e-14
2.73707e-12
1.65142e-11
-3.32251e-11
1.32595e-12
6.35898e-13
3.52367e-11
9.87911e-14
-1.08747e-12
-2.08575e-11
-8.13339e-12
-3.18284e-11
1.06292e-11
-1.38451e-12
-2.49199e-11
-2.52335e-13
-1.62852e-12
-5.96477e-13
6.1091e-12
-6.49427e-12
1.1656e-12
4.35145e-13
-5.65685e-12
2.91388e-13
5.01811e-12
7.45179e-12
-2.25252e-11
2.98535e-13
1.94048e-12
0
4.25691e-12
-4.5373e-12
-2.92744e-13
-4.40469e-13
-4.8911e-12
-4.6272e-12
1.94035e-12
1.47866e-13
2.95208e-11
-1.00812e-12
2.52053e-11
8.70519e-12
-1.12482e-12
3.22412e-13
-1.04746e-11
-4.52229e-12
1.54995e-11
-1.0123e-11
-3.04368e-11
-7.60104e-14
-3.31192e-11
-6.09808e-12
4.37756e-12
1.97057e-13
1.14766e-12
-1.59844e-11
1.34094e-11
-1.2393e-12
3.08715e-11
4.97252e-11
1.94138e-11
-3.78407e-14
9.98132e-12
-6.40299e-11
-6.26861e-13
-2.07943e-11
7.7092e-14
6.87019e-13
3.38169e-11
-7.00213e-11
2.07239e-11
2.36358e-13
5.47154e-13
2.77894e-13
8.68332e-11
3.78127e-13
-2.05324e-13
-1.14687e-11
8.6446e-14
1.02235e-12
2.92499e-11
3.98074e-14
1.02209e-11
2.94066e-11
-2.54404e-11
-2.27618e-11
0
-8.19381e-12
-5.82295e-13
1.11165e-12
-6.7151e-12
-6.63779e-14
2.16396e-11
-4.77526e-12
1.03725e-12
2.40715e-11
-5.12218e-12
-1.46347e-13
-5.2837e-12
2.96337e-13
5.22406e-12
0
0
-4.47944e-12
-2.00916e-11
-1.4822e-13
5.92286e-12
0
1.48236e-11
5.95334e-13
4.32985e-12
-1.49211e-13
-1.76173e-13
5.68657e-13
-1.46999e-11
-2.56106e-13
-4.8658e-12
-1.08985e-12
3.01307e-11
1.29136e-11
4.75583e-12
1.08096e-11
-1.08963e-11
8.96191e-13
-1.39862e-13
1.50147e-11
-1.36227e-11
2.30717e-11
1.06217e-11
-1.79935e-11
-4.53552e-12
1.57224e-13
1.15809e-14
2.16637e-13
-2.07957e-12
2.33883e-11
-1.07403e-11
-7.8938e-12
2.13584e-11
-5.8912e-11
-2.32584e-11
1.20321e-11
-2.76525e-13
-2.37307e-11
1.04722e-11
1.54364e-11
-3.00591e-14
1.82865e-11
1.67386e-12
-5.02057e-11
1.18624e-11
-1.26014e-11
-1.37826e-11
-6.50053e-14
2.55957e-12
-2.69714e-11
-1.30753e-11
7.76652e-13
5.75312e-14
0
6.29868e-12
1.2423e-11
-1.17433e-11
2.01739e-13
-9.94781e-12
-1.10693e-13
7.79216e-13
1.38744e-11
0
-1.53255e-11
0
1.48054e-13
-3.25715e-12
0
2.97592e-13
1.04504e-12
1.29832e-11
1.0422e-11
2.29281e-11
3.20991e-11
4.89531e-12
3.55878e-12
6.82149e-12
4.30207e-12
-1.47116e-11
-4.01971e-12
-1.04207e-11
1.09235e-11
3.58688e-11
1.3754e-11
1.78127e-13
-7.37911e-12
-3.75586e-13
-1.03173e-11
-2.51333e-11
1.3303e-13
1.0757e-11
-9.66528e-14
7.31398e-14
-3.20357e-11
-1.32078e-11
1.55578e-11
-3.72414e-11
8.05404e-12
1.3579e-11
2.97139e-13
1.02406e-11
1.83923e-13
-2.96371e-13
3.07748e-11
3.28497e-11
-7.7763e-12
-4.0629e-11
-3.67077e-11
5.77499e-11
-5.74103e-13
2.81571e-12
-9.70019e-14
2.22548e-11
-9.79177e-13
-2.55389e-11
5.62136e-12
2.63393e-11
2.10309e-11
4.09225e-11
2.15948e-11
5.78691e-13
6.44146e-14
-2.25957e-11
2.99352e-13
-2.52427e-11
-6.18104e-12
-2.57998e-13
-3.62994e-11
-5.40358e-11
-2.21259e-11
-1.35137e-11
1.53729e-12
5.17333e-13
-3.16381e-11
4.82603e-11
-3.03549e-13
-3.42749e-11
3.58517e-11
7.12054e-13
-2.71e-11
1.3711e-12
-3.96053e-13
-2.89228e-11
4.35002e-11
-2.84885e-11
4.25066e-11
4.79275e-11
6.08193e-11
-9.6167e-13
2.77426e-11
-1.96848e-13
-1.64053e-12
6.04264e-12
-2.24979e-11
-1.80762e-11
-2.52473e-12
-5.05413e-11
2.74203e-11
2.43735e-13
-3.00538e-13
-1.68896e-12
-1.48846e-13
1.19066e-12
-1.33709e-12
4.30149e-12
2.19437e-11
-8.89643e-13
2.18036e-11
3.56588e-12
-2.08395e-12
0
4.45413e-13
1.36506e-11
-1.25944e-11
0
9.77183e-12
2.73776e-11
-1.50977e-11
-2.34218e-11
-2.96768e-11
-2.58317e-11
-2.72622e-13
1.16773e-13
1.65066e-11
-3.89165e-12
5.21324e-12
4.20596e-12
4.63345e-12
-1.89374e-11
-1.09264e-11
-1.26545e-11
-6.56493e-13
-1.34058e-11
1.3437e-11
4.06112e-13
-3.24754e-11
-1.03206e-11
1.77808e-11
-7.75098e-15
1.85953e-11
5.5566e-13
1.87676e-13
-1.61988e-13
2.46101e-11
-2.17865e-13
3.10076e-11
-3.68999e-13
3.12607e-11
-4.18303e-13
6.20133e-13
1.88736e-13
-1.35001e-11
2.6258e-13
-2.52992e-11
1.87999e-11
6.50976e-12
-3.51389e-12
-5.93999e-11
-1.29457e-12
1.25978e-11
1.23472e-11
7.35605e-14
1.43359e-11
3.95413e-13
-1.71398e-11
5.08835e-12
3.77584e-12
2.83337e-11
8.82313e-13
-2.77107e-13
1.52897e-14
2.68413e-11
-4.79489e-12
-3.92242e-13
-8.26682e-12
-2.0713e-11
9.76508e-13
-8.69081e-13
2.95455e-13
-1.64459e-11
2.78543e-13
-3.02258e-13
-1.96788e-11
3.49208e-13
2.25654e-11
-2.35175e-11
-8.82555e-13
1.39692e-12
1.36218e-13
-3.57649e-13
2.70304e-13
-2.69172e-11
3.73955e-12
-4.18362e-14
4.17821e-12
2.33273e-11
-4.64798e-12
1.40129e-12
-6.05544e-12
-2.28417e-11
1.46603e-12
-1.35085e-11
0
-3.85345e-12
-1.05082e-11
1.61371e-11
1.36137e-11
2.95997e-13
1.36299e-11
1.78033e-12
1.18771e-12
-1.18562e-12
-4.44367e-13
0
2.66282e-12
0
1.47916e-13
-1.47938e-13
-1.48023e-13
-5.92489e-13
-5.92785e-13
3.8287e-12
-4.6892e-13
1.3001e-13
2.76163e-12
-3.39733e-14
1.38937e-11
8.13333e-14
-1.05404e-11
-6.90278e-13
-5.91183e-13
-1.1287e-11
1.13432e-11
-8.20517e-14
-2.66186e-12
-1.54663e-11
1.86023e-13
9.80391e-14
-4.38711e-14
3.66275e-13
-4.41352e-14
-5.18085e-12
-1.53144e-11
4.24935e-15
-9.375e-15
7.67206e-13
-1.42753e-11
-1.55384e-13
1.00892e-11
-1.39653e-11
-1.29971e-13
1.15744e-11
-1.06815e-11
-1.37058e-11
2.92734e-12
1.53803e-11
3.67177e-13
-9.89232e-12
1.25267e-13
-2.09046e-13
1.20187e-13
7.71371e-14
1.53674e-11
-1.6828e-11
-8.53407e-14
-1.17123e-12
5.43187e-14
1.02634e-11
5.78675e-13
1.41709e-11
9.624e-14
1.10517e-11
-4.73305e-13
1.34534e-11
-6.63063e-15
-6.91266e-14
-1.8449e-13
-6.36581e-12
-3.67552e-13
-8.62714e-14
7.33331e-14
-7.44043e-14
-6.44268e-14
1.73635e-11
1.22102e-11
6.21106e-13
-6.07288e-13
7.01612e-12
2.50459e-13
2.65224e-13
5.04498e-13
-1.082e-11
7.94791e-15
-4.10797e-13
-1.94736e-15
-7.95005e-14
1.05121e-13
1.67271e-11
-4.5025e-14
-2.12049e-13
-3.13801e-13
-1.48188e-13
-1.48109e-13
-7.40029e-13
-1.22779e-11
1.47915e-13
1.47906e-13
-1.62715e-11
-4.43998e-13
0
-2.96396e-13
0
1.48005e-13
-1.1096e-11
1.06493e-11
-2.95791e-13
-1.47896e-13
5.02894e-12
1.12443e-11
5.92028e-13
1.48051e-13
-1.08591e-11
-2.84197e-14
-1.04937e-11
6.49649e-15
-2.03783e-13
-2.18509e-13
1.10949e-13
9.856e-13
-9.61502e-12
3.14069e-13
-1.07288e-11
-2.86984e-14
3.76758e-13
-2.42457e-11
-9.92701e-12
-3.47869e-12
-8.54768e-12
-1.38102e-11
2.36179e-13
-1.05533e-14
1.16036e-11
-1.087e-11
-1.13673e-11
-8.99337e-14
1.39582e-11
1.94272e-11
-4.48071e-13
9.32984e-12
1.02876e-11
1.27934e-12
1.05546e-11
2.65057e-14
-9.88634e-15
1.35384e-11
1.04783e-11
3.75213e-12
3.29827e-12
1.48298e-11
6.31251e-14
-5.16008e-13
-6.66943e-13
-3.50754e-12
8.46192e-13
1.89166e-13
-1.42722e-11
-3.32192e-11
-1.38234e-11
1.13625e-12
-1.11593e-11
-1.00197e-12
-1.90803e-13
-2.81474e-14
-4.51614e-14
-9.40372e-14
2.86887e-13
-4.9999e-13
-3.4636e-13
-1.16166e-12
2.68884e-14
1.15101e-11
2.01556e-13
3.14857e-13
-2.37135e-12
-9.52382e-15
1.51244e-11
1.51757e-11
1.45583e-11
-1.88277e-13
1.12626e-11
-8.24344e-14
5.22382e-14
2.67963e-13
-7.52285e-13
9.28943e-14
-7.97996e-13
-1.23008e-11
-3.82135e-13
-1.37265e-11
1.71611e-11
-1.11251e-11
-1.48043e-13
1.37637e-11
1.24269e-11
-2.95797e-13
-1.50846e-11
-1.27183e-11
-4.437e-13
-1.34626e-11
1.70202e-11
0
-2.53029e-11
-1.44987e-11
7.3958e-13
0
5.91557e-13
-1.27186e-11
0
5.91681e-13
1.08003e-11
2.95944e-13
-2.19748e-11
-1.18461e-11
1.99395e-13
-1.01102e-11
-9.94795e-12
-1.0191e-11
-2.0228e-13
1.45312e-11
1.83284e-13
3.89282e-13
1.30773e-11
1.44913e-11
-5.91597e-13
-5.83736e-13
-1.50012e-11
-3.35836e-12
2.12986e-14
2.50167e-13
-1.08653e-11
5.40958e-13
-2.5825e-12
1.21809e-11
-3.54495e-13
9.74743e-12
-3.40224e-12
1.048e-11
-2.56277e-13
-2.59986e-11
9.96751e-12
3.30999e-12
1.08698e-12
1.36755e-11
-5.15926e-14
-1.81994e-14
1.50756e-11
1.63421e-11
-2.12533e-14
-1.38202e-13
2.89035e-13
9.77985e-12
1.40014e-11
1.91406e-13
1.18145e-11
2.66398e-13
1.31747e-11
-1.15659e-13
-4.25174e-13
1.1908e-11
2.99667e-12
-3.48505e-12
-3.41585e-13
-1.3763e-11
-2.46881e-14
-3.58482e-14
-1.45815e-11
-1.35434e-12
4.93924e-14
-8.02125e-13
-2.35851e-13
-1.02572e-11
2.39325e-13
-1.65627e-13
-1.15184e-11
1.1695e-13
4.8809e-13
8.13389e-14
2.28796e-13
2.2006e-13
-2.49008e-11
-2.48501e-15
-1.78021e-13
2.46167e-13
-2.05921e-13
-9.07357e-14
1.42786e-11
1.11905e-12
2.9318e-12
4.94726e-13
6.09045e-13
1.97012e-14
0
4.43819e-13
1.4791e-13
2.95779e-13
0
0
2.80996e-12
0
1.10959e-11
2.95943e-13
-9.83702e-12
-6.65729e-13
7.39659e-14
-3.69593e-13
1.06473e-11
-5.02791e-12
-5.17485e-13
-7.39032e-14
-2.2181e-13
7.37721e-14
-9.53921e-12
-1.40432e-12
7.39413e-14
-1.07213e-11
-8.87269e-13
-1.37532e-11
-1.14614e-11
-7.3885e-14
7.42186e-14
2.22501e-13
2.21045e-13
5.16808e-13
-2.95708e-13
3.34868e-16
-1.19792e-11
5.02844e-12
5.91776e-13