/*--------------------------------*- C++ -*----------------------------------*\
  =========                 |
  \\      /  F ield         | OpenFOAM: The Open Source CFD Toolbox
   \\    /   O peration     | Website:  https://openfoam.org
    \\  /    A nd           | Version:  10
     \\/     M anipulation  |
\*---------------------------------------------------------------------------*/
FoamFile
{
    format      ascii;
    class       volScalarField;
    location    "2.9";
    object      gradTy;
}
// * * * * * * * * * * * * * * * * * * * * * * * * * * * * * * * * * * * * * //

dimensions      [0 -1 0 1 0 0 0];

internalField   nonuniform List<scalar> 
3000
(
-2.19291e-09
-4.39648e-11
4.61853e-11
-2.44249e-11
-3.28626e-11
-2.93099e-11
-6.43929e-11
-1.62981e-10
-2.93099e-11
-1.6831e-10
-2.14495e-09
-4.35207e-11
3.5083e-11
2.30926e-11
-5.24025e-11
0
-9.19265e-11
-1.62981e-10
1.61204e-10
-1.18128e-10
1.19904e-11
0
-3.10862e-11
9.32587e-12
7.50511e-11
1.91847e-10
0
1.62537e-10
1.86517e-11
0
-5.68434e-11
1.06581e-11
-6.30607e-11
-5.19584e-11
-3.10862e-12
-3.81917e-11
2.93099e-11
1.62537e-10
0
-7.37188e-11
-3.4639e-11
-1.68754e-11
2.08722e-11
-1.02141e-11
-9.81437e-11
-1.62537e-10
-2.75335e-11
-1.94511e-10
1.7053e-10
4.9738e-11
0
-1.11022e-11
-2.66454e-12
-7.99361e-12
3.01981e-11
1.98508e-10
1.57652e-10
0
-1.15463e-11
0
6.21725e-11
1.02141e-10
6.66134e-12
4.26326e-11
5.01821e-11
4.44089e-13
1.5099e-11
1.94511e-10
-1.60316e-10
-6.83897e-11
-1.5099e-11
2.84217e-11
1.03473e-10
4.66294e-11
7.10543e-11
0
-1.5854e-10
-1.62537e-10
0
-9.32587e-12
-1.07025e-10
2.18892e-09
-1.82077e-11
4.70735e-11
-4.44089e-13
1.62093e-10
1.85629e-10
-6.21725e-12
-8.88178e-13
7.77156e-11
-4.57412e-11
2.24532e-09
-4.88498e-11
5.24025e-11
-5.15143e-11
2.22045e-12
1.71863e-10
1.55431e-10
-1.5099e-10
9.23706e-11
-2.24043e-09
2.22045e-11
-2.79776e-11
-6.92779e-11
-8.21565e-11
-6.75016e-11
-6.30607e-11
-1.88738e-10
-9.19265e-11
-3.55271e-12
-2.20357e-09
-5.4623e-11
1.64313e-11
-6.70575e-11
-1.14575e-10
-4.88498e-12
-1.06581e-10
-1.89182e-10
1.33227e-12
-1.24345e-11
0
8.43769e-12
2.44249e-11
1.37668e-11
7.81597e-11
8.79297e-11
2.08722e-11
-7.10543e-12
4.44089e-11
-6.43929e-11
-5.06262e-11
1.19904e-11
-6.30607e-11
-3.55271e-12
0
-8.30447e-11
5.59552e-11
1.55431e-11
-5.72875e-11
-7.90479e-11
-2.35367e-11
-8.57092e-11
1.9984e-11
2.93099e-11
-1.0969e-10
-2.57572e-11
-6.4837e-11
7.54952e-12
4.75175e-11
5.59552e-11
0
0
5.32907e-12
1.33227e-11
7.99361e-11
0
4.75175e-11
-8.88178e-13
4.79616e-11
0
4.92939e-11
5.50671e-11
8.43769e-12
-2.84217e-11
9.59233e-11
8.43769e-12
3.41949e-11
1.59872e-11
-7.86038e-11
-6.61693e-11
-1.33227e-12
3.9968e-12
9.14824e-11
0
3.01981e-11
1.13243e-10
0
-1.5099e-11
-7.23865e-11
-2.08722e-11
2.22089e-09
2.30704e-09
-1.82077e-11
-3.10862e-12
-4.44089e-12
6.9722e-11
4.4853e-11
1.71863e-10
4.52971e-11
7.32747e-11
2.26175e-09
2.34701e-09
-4.30767e-11
-3.10862e-12
-1.86517e-11
4.9738e-11
-2.44249e-11
1.8785e-10
4.75175e-11
1.06581e-10
-2.30305e-09
-3.77476e-11
-1.86517e-11
-3.06422e-11
-8.61533e-11
-3.41949e-11
-3.55271e-12
-9.32587e-12
-1.64757e-10
-6.17284e-11
-2.28395e-09
5.32907e-12
1.55431e-11
-1.03473e-10
-6.21725e-12
-4.44089e-12
-5.81757e-11
-8.88178e-12
-2.77112e-10
-1.62093e-10
4.70735e-11
7.72715e-11
-4.35207e-11
-4.26326e-11
3.24185e-11
-8.30447e-11
-3.15303e-11
-1.55431e-11
-1.13243e-10
-5.55112e-11
-6.17284e-11
-6.08402e-11
-4.52971e-11
-1.77636e-12
-8.08242e-11
-1.12355e-10
-2.13163e-11
-8.74856e-11
0
0
-2.84217e-11
-3.4639e-11
7.77156e-11
-4.61853e-11
7.68274e-11
0
-2.30926e-11
1.64313e-11
0
3.86358e-11
-4.44089e-13
4.84057e-11
-3.68594e-11
0
1.24345e-11
0
2.08722e-11
2.30926e-11
2.04281e-11
2.04281e-11
1.11022e-11
-4.04121e-11
-5.37348e-11
7.50511e-11
-1.28786e-11
1.14131e-10
0
-1.77636e-11
2.08722e-11
-8.30447e-11
1.15019e-10
6.52811e-11
-9.32587e-12
4.70735e-11
-1.19904e-11
0
0
-2.30926e-11
-2.04281e-11
6.26166e-11
2.26397e-09
2.27462e-09
-3.10862e-12
-1.82077e-11
-1.33227e-11
-3.5083e-11
5.86198e-11
-2.22045e-12
9.63674e-11
1.16795e-10
2.22311e-09
2.18314e-09
3.59712e-11
-4.44089e-12
8.30447e-11
7.90479e-11
5.81757e-11
6.70575e-11
1.16795e-10
3.41949e-11
-2.26663e-09
-3.81917e-11
-1.64313e-11
-1.86517e-11
-7.50511e-11
-4.70735e-11
-2.22045e-11
-1.94955e-10
-2.26485e-11
-6.83897e-11
-2.22133e-09
-3.86358e-11
-4.17444e-11
-3.28626e-11
-1.02141e-10
-1.12355e-10
-8.65974e-11
-2.46025e-10
-2.39808e-11
-6.75016e-11
1.46549e-11
1.24345e-11
1.33227e-12
4.17444e-11
8.88178e-13
1.9984e-11
-1.9984e-11
3.19744e-11
-1.9984e-11
2.08722e-11
-4.70735e-11
0
7.10543e-12
4.9738e-11
9.81437e-11
8.30447e-11
2.35367e-11
-2.35367e-11
2.57572e-11
6.43929e-11
-1.37668e-11
-1.24345e-11
-3.86358e-11
-4.21885e-11
4.70735e-11
2.79776e-11
3.5083e-11
-2.44249e-11
1.06581e-11
-6.4837e-11
-1.86517e-11
5.68434e-11
5.01821e-11
-4.66294e-11
0
1.68754e-11
0
0
0
0
4.04121e-11
1.82077e-11
6.61693e-11
5.59552e-11
-6.4837e-11
-1.02141e-10
-7.99361e-12
-1.33227e-12
1.59872e-11
9.14824e-11
2.44249e-11
1.46549e-11
-7.19425e-11
5.41789e-11
-2.26485e-11
-1.64313e-11
0
9.72555e-11
-8.74856e-11
-8.74856e-11
2.21911e-09
2.30349e-09
5.68434e-11
-3.64153e-11
9.19265e-11
9.59233e-11
1.88294e-10
-5.32907e-12
2.04281e-11
2.04281e-11
2.25775e-09
2.2502e-09
1.23013e-10
-2.4869e-11
2.75335e-11
2.39808e-11
2.35367e-10
-2.17604e-11
9.10383e-11
9.10383e-11
-2.23155e-09
-4.26326e-11
-1.5099e-11
-2.17604e-11
-8.61533e-11
-7.90479e-11
-3.90799e-11
-1.88294e-10
-2.21601e-10
-6.70575e-11
-2.28972e-09
-7.23865e-11
-1.11022e-11
-8.43769e-11
-8.65974e-11
3.33067e-11
-9.4591e-11
-2.5846e-10
-2.78e-10
-8.83738e-11
3.24185e-11
6.52811e-11
1.95399e-11
-4.88498e-11
3.19744e-11
0
3.24185e-11
-5.81757e-11
-5.55112e-11
4.39648e-11
-2.66454e-12
0
0
5.68434e-11
0
-1.12355e-10
-2.04281e-11
6.26166e-11
0
0
-9.05942e-11
-1.01696e-10
-2.13163e-11
1.46549e-11
-3.19744e-11
0
-8.79297e-11
6.52811e-11
0
1.82077e-11
3.90799e-11
4.08562e-11
0
-5.86198e-11
0
0
0
0
0
8.30447e-11
3.55271e-11
9.41469e-11
7.90479e-11
-4.92939e-11
0
4.44089e-11
6.26166e-11
-8.12683e-11
8.30447e-11
-8.30447e-11
7.77156e-11
7.23865e-11
-4.44089e-13
1.68754e-11
0
0
2.08722e-11
2.04281e-11
0
0
2.23732e-09
2.20757e-09
-3.33067e-11
1.03473e-10
8.65974e-11
3.4639e-11
-3.9968e-12
8.88178e-11
-3.9968e-12
1.16795e-10
2.15783e-09
2.18314e-09
3.77476e-11
6.92779e-11
8.61533e-11
7.90479e-11
5.81757e-11
3.10862e-12
7.90479e-11
3.41949e-11
-2.23999e-09
-3.81917e-11
-1.86517e-11
-2.08722e-11
-8.61533e-11
-3.41949e-11
-2.76668e-10
-1.77636e-12
-1.64313e-10
-1.16795e-10
-2.2129e-09
8.88178e-12
1.55431e-11
-1.13687e-10
-8.65974e-11
-1.16795e-10
-2.78e-10
-8.88178e-12
-2.77112e-10
-1.62093e-10
9.32587e-12
7.72715e-11
-5.72875e-11
-3.59712e-11
1.19904e-11
3.01981e-11
9.9476e-11
4.44089e-13
-1.13243e-10
5.50671e-11
-6.21725e-11
-6.39488e-11
0
6.08402e-11
0
-8.88178e-13
7.54952e-11
2.39808e-11
7.54952e-11
0
1.73195e-11
-3.4639e-11
-4.44089e-13
4.61853e-11
-1.19904e-11
-1.12355e-10
-7.81597e-11
-7.54952e-12
0
-1.64313e-11
4.44089e-13
0
-8.4821e-11
-3.15303e-11
1.19904e-11
9.99201e-11
-7.59393e-11
-6.4837e-11
7.54952e-12
8.30447e-11
-5.32907e-11
8.43769e-12
3.86358e-11
-3.10862e-11
3.37508e-11
8.43769e-11
4.39648e-11
-6.61693e-11
6.4837e-11
-3.86358e-11
1.14575e-10
1.13243e-10
-7.10543e-12
-2.9754e-11
-1.24345e-11
-1.68754e-11
4.44089e-11
0
1.68754e-11
-6.26166e-11
2.32836e-09
2.24354e-09
5.9508e-11
-4.75175e-11
4.9738e-11
-5.32907e-12
2.12719e-10
8.92619e-11
2.12719e-10
6.43929e-11
2.22311e-09
2.19913e-09
9.72555e-11
2.44249e-11
8.30447e-11
-3.9968e-12
2.33591e-10
6.21725e-11
1.7808e-10
8.74856e-11
-2.2462e-09
3.10862e-12
-1.5099e-11
4.30767e-11
-7.32747e-11
-7.9492e-11
-1.63425e-10
-2.53131e-11
-5.32907e-12
-7.90479e-11
-2.24265e-09
-2.17604e-11
-4.9738e-11
-2.88658e-11
-1.05693e-10
-5.86198e-11
-2.46025e-10
-9.59233e-11
-8.79297e-11
3.9968e-12
-2.04281e-11
-1.82077e-11
-3.33067e-11
-5.68434e-11
-4.44089e-13
9.99201e-11
-5.90639e-11
-5.81757e-11
5.77316e-12
1.08358e-10
5.01821e-11
4.66294e-11
2.66454e-12
5.68434e-11
0
0
-2.13163e-11
6.26166e-11
-8.88178e-13
0
7.41629e-11
-5.72875e-11
-1.37668e-11
3.28626e-11
-3.19744e-11
-7.90479e-11
3.95239e-11
3.06422e-11
-6.39488e-11
-5.28466e-11
-9.76996e-12
-8.43769e-12
0
-5.68434e-11
0
6.26166e-11
0
-6.26166e-11
-2.13163e-11
0
-1.15463e-11
8.79297e-11
7.10543e-11
-3.10862e-12
1.33227e-11
2.26485e-11
-6.26166e-11
-4.66294e-11
3.95239e-11
2.75335e-11
1.02141e-11
-3.73035e-11
-4.44089e-12
-4.44089e-13
4.44089e-13
8.88178e-13
8.30447e-11
5.50671e-11
2.04281e-11
-2.75335e-11
2.23643e-09
2.25953e-09
-2.35367e-11
3.9968e-11
7.28306e-11
3.4639e-11
5.86198e-11
8.88178e-11
3.41949e-11
3.41949e-11
2.224e-09
2.29505e-09
3.90799e-11
8.39329e-11
8.61533e-11
-3.9968e-12
-3.9968e-12
3.10862e-11
9.63674e-11
6.12843e-11
-2.21911e-09
-4.66294e-11
-6.4837e-11
-4.84057e-11
-8.12683e-11
6.21725e-12
-1.72307e-10
-1.72307e-10
-2.53131e-11
-1.72307e-10
-2.26441e-09
-9.41469e-11
2.22045e-12
-3.24185e-11
-7.99361e-11
2.35367e-11
-2.35811e-10
-1.88738e-10
-9.59233e-11
-2.59348e-10
-3.24185e-11
-6.66134e-12
4.79616e-11
5.50671e-11
-8.17124e-11
-8.17124e-11
-9.68114e-11
-8.92619e-11
-5.81757e-11
-9.68114e-11
3.55271e-12
4.70735e-11
-1.33227e-11
-5.32907e-11
-8.43769e-12
-8.88178e-12
-2.35367e-11
-7.32747e-11
8.30447e-11
2.35367e-11
-8.43769e-12
7.54952e-12
3.64153e-11
-1.0747e-10
9.50351e-11
7.4607e-11
3.37508e-11
0
1.02141e-11
3.33067e-11
-5.4623e-11
0
-5.72875e-11
5.19584e-11
-7.37188e-11
-3.5083e-11
0
0
-2.79776e-11
0
4.13003e-11
2.04281e-11
-3.77476e-11
1.11022e-11
-9.01501e-11
-6.66134e-11
-2.62013e-11
9.23706e-11
-2.62013e-11
-2.22045e-12
6.39488e-11
1.59872e-11
0
0
0
0
6.26166e-11
0
-5.50671e-11
-4.39648e-11
2.16316e-09
2.21778e-09
-3.01981e-11
3.01981e-11
6.4837e-11
8.88178e-11
6.08402e-11
-1.24345e-11
2.59792e-10
4.61853e-11
2.19558e-09
2.22355e-09
2.17604e-11
-2.62013e-11
6.9722e-11
4.17444e-11
-3.9968e-12
8.08242e-11
2.57128e-10
8.83738e-11
-2.20046e-09
-4.04121e-11
-1.59872e-11
4.35207e-11
-7.32747e-11
-1.65645e-10
-1.62981e-10
-2.53131e-11
-2.35367e-10
-7.86038e-11
-2.16005e-09
3.95239e-11
-1.13243e-10
-5.72875e-11
-1.05693e-10
-2.77112e-10
-2.45581e-10
-9.59233e-11
-2.66009e-10
-7.90479e-11
-2.9754e-11
3.9968e-11
-3.9968e-11
-5.50671e-11
7.72715e-11
-1.13243e-10
4.88498e-12
0
-1.15463e-11
6.4837e-11
-6.52811e-11
-6.12843e-11
8.88178e-13
5.90639e-11
0
0
5.50671e-11
6.17284e-11
7.63833e-11
0
6.92779e-11
3.95239e-11
-5.81757e-11
-4.61853e-11
-1.0969e-10
8.30447e-11
-2.57572e-11
-2.66454e-11
0
-9.32587e-12
2.22045e-12
5.24025e-11
1.37668e-11
2.79776e-11
1.37668e-11
4.35207e-11
-7.54952e-11
0
-5.55112e-11
8.30447e-11
-3.01981e-11
-2.70894e-11
1.37668e-11
1.9984e-11
3.24185e-11
-3.86358e-11
-7.54952e-12
-4.66294e-11
7.90479e-11
5.68434e-11
5.90639e-11
1.02141e-11
-1.42109e-11
-2.70894e-11
-1.37668e-11
-2.30926e-11
2.13163e-11
1.64313e-11
4.39648e-11
-8.30447e-11
2.18847e-09
2.21378e-09
8.39329e-11
6.30607e-11
5.06262e-11
1.18128e-10
2.01617e-10
9.9476e-11
1.59872e-11
-3.55271e-12
2.16271e-09
2.18625e-09
9.72555e-11
2.30926e-11
8.30447e-11
1.40776e-10
2.57128e-10
1.68754e-11
4.9738e-11
1.07914e-10
7.50511e-11
3.41949e-11
-1.64313e-11
-5.24025e-11
-3.9968e-11
-1.18572e-10
-2.88658e-11
-1.62981e-10
-3.73035e-11
-5.90639e-11
4.26326e-11
-5.06262e-11
-2.93099e-11
-4.04121e-11
-4.61853e-11
-2.00284e-10
-2.88658e-11
-2.01172e-10
8.88178e-13
-9.19265e-11
5.9952e-11
-6.88338e-11
1.82077e-11
-3.68594e-11
8.79297e-11
-8.30447e-11
1.91402e-10
-2.35367e-11
3.81917e-11
0
1.77636e-12
8.88178e-13
8.88178e-13
-5.10703e-11
-3.55271e-12
0
-8.88178e-12
-4.44089e-13
0
0
-2.70894e-11
-3.55271e-12
-3.19744e-11
-1.02141e-11
-6.75016e-11
0
-2.00728e-10
1.37668e-11
-2.88658e-11
-3.55271e-12
3.4639e-11
-8.43769e-12
0
5.10703e-11
4.61853e-11
2.93099e-11
3.77476e-11
3.77476e-11
-8.43769e-12
0
1.02141e-11
6.39488e-11
1.24345e-11
3.68594e-11
2.30926e-11
2.75335e-11
2.79776e-11
-8.43769e-12
2.88658e-11
-2.04281e-11
-3.4639e-11
7.37188e-11
0
1.86517e-11
-1.64313e-11
0
-3.81917e-11
1.6076e-10
6.21725e-12
2.9754e-11
2.081e-09
2.29106e-09
9.81437e-11
-4.44089e-13
-1.82077e-11
1.74527e-10
9.32587e-12
1.90958e-11
1.63869e-10
1.93179e-10
2.15605e-09
2.30393e-09
1.11022e-10
-3.95239e-11
5.32907e-12
1.72307e-10
3.68594e-11
-1.61204e-10
1.66089e-10
1.72751e-10
-1.60316e-10
-1.79856e-10
-1.63869e-10
-1.63869e-10
-1.65645e-10
3.9968e-12
-1.79856e-10
-1.60316e-10
-1.63869e-10
-3.77476e-11
-1.13687e-10
-1.66533e-10
-1.66089e-10
-1.62981e-10
-1.69642e-10
0
-1.82965e-10
-1.63869e-10
-1.62981e-10
-1.71863e-10
1.77636e-12
1.42109e-11
1.62093e-10
5.68434e-11
1.60316e-10
-1.94067e-10
1.75415e-10
1.77636e-12
4.44089e-13
-1.33671e-10
-4.66294e-11
1.51879e-10
3.55271e-12
-5.77316e-12
1.68754e-10
-1.59428e-10
1.15463e-11
3.55271e-12
0
1.66089e-10
-2.93099e-11
-2.22045e-12
3.9968e-12
-5.63993e-11
-1.63425e-10
1.9007e-10
-1.78524e-10
1.62537e-10
-4.44089e-13
0
1.65645e-10
-1.58096e-10
0
-4.44089e-13
-1.65645e-10
0
0
0
5.68434e-11
0
2.17604e-11
-2.66454e-11
-1.81188e-10
1.61204e-10
4.44089e-12
3.9968e-12
-1.06581e-11
-1.63425e-10
-2.79776e-11
6.66134e-12
-1.74083e-10
1.69198e-10
0
1.67422e-10
1.65645e-10
1.59428e-10
1.59872e-10
0
-6.26166e-11
0
1.72307e-10
1.92291e-10
1.83409e-10
2.22045e-12
1.65201e-10
4.44089e-13
1.91402e-10
1.65645e-10
9.4591e-11
1.63425e-10
1.74971e-10
3.55271e-12
1.66533e-10
1.77636e-12
1.33227e-12
4.44089e-12
9.32587e-12
1.66533e-10
7.10543e-11
3.9968e-12
-1.04805e-10
-6.21725e-12
-4.35207e-11
-1.61204e-10
-3.06422e-11
-1.72307e-10
7.99361e-12
-3.06422e-11
4.44089e-13
-1.44329e-10
-7.14984e-11
-1.03029e-10
-2.88658e-11
-2.70006e-10
-3.06422e-11
-1.66089e-10
2.13163e-11
-3.06422e-11
-1.08358e-10
-1.29674e-10
0
-9.54792e-11
-1.64313e-11
-1.15463e-10
-1.9984e-11
-1.5099e-11
8.43769e-12
6.21725e-12
-3.95239e-11
-4.44089e-11
0
7.54952e-11
0
3.33067e-11
-6.70575e-11
4.44089e-13
-6.83897e-11
0
6.79456e-11
0
7.4607e-11
5.59552e-11
3.01981e-11
9.54792e-11
4.92939e-11
2.17604e-11
-4.17444e-11
-6.21725e-12
-7.63833e-11
5.9952e-11
-4.44089e-13
-7.54952e-11
0
2.04281e-11
7.32747e-11
0
2.08722e-11
2.93099e-11
1.90958e-11
-5.9508e-11
2.30926e-11
-3.55271e-11
-1.42109e-11
1.73195e-11
-6.66134e-12
0
-4.13003e-11
2.26485e-11
2.13163e-11
-6.66134e-12
4.04121e-11
5.59552e-11
4.44089e-13
3.37508e-11
2.30926e-11
-8.88178e-13
0
0
-9.54792e-11
5.9508e-11
-4.44089e-13
9.4591e-11
2.0961e-10
-1.42109e-11
9.32587e-12
-1.77636e-12
7.86038e-11
1.73639e-10
9.54792e-11
1.6831e-10
2.22045e-11
5.9508e-11
1.96287e-10
3.55271e-12
2.22045e-12
-1.33227e-12
3.64153e-11
1.66533e-10
1.15907e-10
1.61648e-10
-4.79616e-11
-5.9508e-11
-2.70894e-11
-1.07914e-10
-1.66533e-10
3.9968e-12
-2.10942e-10
-2.70894e-11
-1.16351e-10
-1.61648e-10
-5.32907e-11
-5.24025e-11
-1.01696e-10
-2.08722e-11
-2.37144e-10
-6.57252e-11
-2.56239e-10
-4.44089e-12
-2.04281e-11
-2.31815e-10
-1.03917e-10
4.70735e-11
-1.37668e-11
6.88338e-11
-6.21725e-12
-2.93099e-11
4.08562e-11
0
7.59393e-11
-9.59233e-11
-8.88178e-12
3.37508e-11
1.02141e-11
0
-2.39808e-11
-2.30926e-11
7.90479e-11
-8.70415e-11
8.88178e-13
-2.35367e-11
1.03473e-10
-9.54792e-11
-6.21725e-12
2.66454e-11
-4.26326e-11
-4.04121e-11
-9.54792e-11
2.93099e-11
-6.88338e-11
4.66294e-11
-5.55112e-11
-6.39488e-11
2.35367e-11
-6.39488e-11
0
2.30926e-11
0
2.35367e-11
-6.39488e-11
0
-2.26485e-11
7.50511e-11
-4.66294e-11
-8.43769e-12
2.62013e-11
-2.57572e-11
6.88338e-11
-7.23865e-11
1.04805e-10
2.75335e-11
-8.88178e-13
7.19425e-11
0
-3.10862e-11
0
-4.44089e-11
-4.04121e-11
0
7.14984e-11
2.30926e-11
-2.66454e-12
4.44089e-13
7.01661e-11
-1.19904e-11
2.62013e-11
7.01661e-11
7.10543e-12
4.66294e-11
-2.88658e-11
2.57572e-11
4.44089e-11
-1.9984e-11
4.39648e-11
8.34888e-11
9.63674e-11
8.83738e-11
2.79776e-11
4.39648e-11
-1.9984e-11
7.23865e-11
-2.4869e-11
-1.1724e-10
-5.50671e-11
-1.73639e-10
-4.4853e-11
-1.06137e-10
-1.74527e-10
-4.44089e-13
-1.09246e-10
3.9968e-12
-3.33067e-11
-8.52651e-11
-3.90799e-11
-9.59233e-11
-2.66454e-12
-3.24185e-11
-1.82077e-10
-3.24185e-11
-4.44089e-13
-1.11022e-11
-3.68594e-11
7.50511e-11
-1.28786e-11
1.03473e-10
-1.02141e-11
3.10862e-11
-2.70894e-11
-7.4607e-11
6.70575e-11
3.10862e-12
-7.41629e-11
-2.30926e-11
-6.03961e-11
2.66454e-11
-1.5099e-11
-7.4607e-11
-9.54792e-11
-7.4607e-11
-1.07914e-10
1.73195e-11
-1.06581e-11
-7.59393e-11
-7.99361e-12
-2.04281e-11
5.28466e-11
4.35207e-11
3.68594e-11
4.35207e-11
2.04281e-11
-8.88178e-12
0
9.54792e-11
0
-2.79776e-11
0
8.12683e-11
2.04281e-11
8.12683e-11
9.4591e-11
-2.57572e-11
6.35048e-11
6.4837e-11
8.26006e-11
-1.77636e-11
-1.64313e-11
-4.35207e-11
-9.19265e-11
-6.70575e-11
-7.50511e-11
-6.52811e-11
5.41789e-11
-4.75175e-11
4.44089e-11
3.73035e-11
-3.77476e-11
0
7.50511e-11
-8.12683e-11
1.33227e-11
-3.68594e-11
-2.13163e-11
5.15143e-11
-3.06422e-11
3.73035e-11
2.62013e-11
7.59393e-11
2.56684e-10
9.9476e-11
9.54792e-11
2.38032e-10
2.04281e-11
6.03961e-11
3.06422e-11
-1.02141e-11
6.26166e-11
2.4869e-11
1.82077e-10
1.06137e-10
0
2.25153e-10
-2.22045e-11
3.37508e-11
-1.33227e-12
-8.43769e-11
-1.33227e-12
-1.62537e-10
-1.96732e-10
-1.33227e-12
-9.54792e-11
-2.10942e-10
-8.61533e-11
3.64153e-11
-5.06262e-11
-2.13163e-11
-9.50351e-11
-2.55351e-10
-2.3137e-10
-1.05249e-10
-2.08722e-11
-2.55351e-10
7.54952e-12
-1.03917e-10
2.22045e-12
7.86038e-11
-7.99361e-11
-1.03029e-10
-6.83897e-11
-1.03473e-10
4.21885e-11
-4.66294e-11
6.17284e-11
-2.04281e-11
1.82077e-11
0
6.26166e-11
6.26166e-11
5.41789e-11
-1.06581e-11
0
6.26166e-11
-4.70735e-11
2.35367e-11
-7.99361e-12
2.66454e-12
7.41629e-11
6.4837e-11
9.50351e-11
3.37508e-11
-3.06422e-11
9.01501e-11
0
7.10543e-12
0
8.88178e-12
-6.21725e-11
-6.21725e-11
7.99361e-12
8.34888e-11
7.10543e-12
-6.21725e-11
-2.62013e-11
-1.02141e-11
-9.01501e-11
-9.76996e-12
-1.77636e-11
-5.77316e-11
-2.75335e-11
6.57252e-11
4.44089e-11
-1.64313e-11
2.93099e-11
-4.84057e-11
2.93099e-11
-1.03473e-10
9.19265e-11
7.50511e-11
-4.75175e-11
3.01981e-11
-4.75175e-11
9.19265e-11
1.43885e-10
9.05942e-11
8.88178e-11
7.10543e-12
1.64313e-11
2.61569e-10
3.4639e-11
5.10703e-11
3.5083e-11
1.5099e-11
4.9738e-11
5.50671e-11
-5.77316e-12
1.11022e-10
-6.21725e-12
1.83853e-10
5.50671e-11
4.9738e-11
5.50671e-11
-6.21725e-12
1.11022e-11
-2.22045e-12
-1.65645e-10
-2.26485e-11
2.22045e-12
-1.66089e-10
-5.72875e-11
-1.65645e-10
-3.10862e-12
-2.44249e-11
-3.10862e-12
-1.07025e-10
-1.94955e-10
-9.01501e-11
-1.01696e-10
-1.803e-10
-8.26006e-11
-1.66089e-10
-1.08358e-10
-1.33227e-12
-1.46549e-11
-1.73195e-11
-8.08242e-11
-7.63833e-11
-1.03029e-10
-6.66134e-12
1.42109e-11
-2.93099e-11
-1.73195e-11
-4.30767e-11
2.35367e-11
8.74856e-11
2.35367e-11
9.05942e-11
5.4623e-11
-7.90479e-11
7.90479e-11
-7.01661e-11
8.74856e-11
-6.43929e-11
-7.37188e-11
-1.95399e-11
8.21565e-11
1.10134e-10
5.41789e-11
-6.30607e-11
-4.75175e-11
-7.37188e-11
-1.95399e-11
2.30926e-11
-6.4837e-11
7.99361e-12
-1.5099e-11
1.06581e-11
4.35207e-11
0
7.99361e-12
0
7.99361e-12
3.90799e-11
7.54952e-12
3.64153e-11
-8.30447e-11
-3.4639e-11
-4.61853e-11
-2.62013e-11
1.02141e-10
9.99201e-11
2.75335e-11
4.26326e-11
2.08722e-11
8.88178e-13
-3.68594e-11
-3.28626e-11
-6.4837e-11
0
0
2.04281e-11
0
-3.90799e-11
8.88178e-11
3.10862e-12
2.45581e-10
1.77636e-11
2.61124e-10
7.06102e-11
-2.66454e-11
-3.10862e-12
-1.9984e-11
-1.90958e-11
4.17444e-11
1.24345e-11
2.25153e-10
1.68754e-11
2.36255e-10
6.70575e-11
-1.9984e-11
4.17444e-11
-1.9984e-11
4.39648e-11
7.54952e-12
-1.90958e-11
-3.06422e-11
-3.95239e-11
-1.66978e-10
-1.62093e-10
-5.72875e-11
-3.06422e-11
-3.10862e-12
-2.44249e-11
-7.54952e-12
-1.19904e-11
-7.19425e-11
-4.04121e-11
-1.71863e-10
-2.00284e-10
1.06581e-11
-2.35367e-11
-1.33227e-11
-1.33227e-12
-9.32587e-11
-7.4607e-11
7.54952e-12
-1.33227e-12
-6.66134e-12
-2.26485e-11
3.4639e-11
-7.4607e-11
-9.14824e-11
-7.37188e-11
-7.86038e-11
-7.19425e-11
4.04121e-11
-3.37508e-11
-4.35207e-11
3.77476e-11
-6.66134e-12
-8.43769e-12
-7.19425e-11
-6.4837e-11
4.35207e-11
3.4639e-11
-3.68594e-11
-1.37668e-11
-7.32747e-11
-9.14824e-11
-1.9984e-11
0
4.13003e-11
1.03473e-10
0
2.44249e-11
-7.4607e-11
2.08722e-11
0
-1.13243e-10
-4.75175e-11
-6.26166e-11
2.44249e-11
0
-4.66294e-11
8.88178e-12
-2.04281e-11
2.22045e-12
-1.59872e-11
1.77636e-11
4.75175e-11
1.00364e-10
3.68594e-11
-6.66134e-12
9.19265e-11
5.72875e-11
5.4623e-11
1.42109e-11
-2.08722e-11
1.03917e-10
1.9984e-11
0
2.13163e-11
3.90799e-11
8.92619e-11
5.15143e-11
8.30447e-11
5.24025e-11
6.75016e-11
6.9722e-11
1.28786e-11
-3.9968e-12
1.64313e-11
1.72307e-10
-6.21725e-12
3.10862e-12
5.19584e-11
3.9968e-11
4.13003e-11
-1.5099e-11
4.04121e-11
8.61533e-11
3.95239e-11
1.96732e-10
-2.22045e-12
-6.66134e-12
-1.51879e-10
-7.90479e-11
0
-1.6831e-10
-6.66134e-12
-9.32587e-12
-6.26166e-11
0
-1.86517e-11
-1.07025e-10
-1.7808e-10
-3.10862e-12
-2.30926e-11
-1.59428e-10
2.66454e-12
-7.50511e-11
-3.10862e-12
-2.26485e-11
0
-3.5083e-11
0
6.57252e-11
2.66454e-12
-6.52811e-11
-7.90479e-11
-6.52811e-11
-2.35367e-11
-1.46549e-11
-7.32747e-11
8.30447e-11
-5.72875e-11
-7.68274e-11
-7.32747e-11
-2.53131e-11
-4.75175e-11
7.23865e-11
-5.9508e-11
1.59872e-11
9.32587e-12
4.79616e-11
-2.44249e-11
3.86358e-11
4.44089e-13
-8.88178e-13
2.04281e-11
-4.44089e-13
8.30447e-11
-8.88178e-11
-4.44089e-13
-3.90799e-11
0
4.44089e-11
-4.44089e-13
-4.88498e-11
3.33067e-11
0
6.9722e-11
-1.55431e-11
-9.81437e-11
-3.68594e-11
6.66134e-12
-8.30447e-11
-3.86358e-11
5.77316e-11
-2.08722e-11
7.4607e-11
-8.21565e-11
6.75016e-11
9.81437e-11
3.86358e-11
5.81757e-11
1.11022e-11
9.90319e-11
6.83897e-11
-3.28626e-11
-7.19425e-11
-5.9508e-11
-8.17124e-11
8.08242e-11
3.55271e-12
1.81188e-10
5.86198e-11
1.65201e-10
1.80744e-10
8.9706e-11
1.62981e-10
8.65974e-11
2.02061e-10
-1.82077e-11
-3.9968e-12
1.8785e-10
2.35367e-11
1.2701e-10
1.69198e-10
4.88498e-11
2.38476e-10
5.10703e-11
2.69562e-10
-2.22045e-11
-1.64757e-10
-3.06422e-11
-7.90479e-11
-1.73195e-10
-1.62093e-10
-1.68754e-11
-3.06422e-11
-8.9706e-11
-4.44089e-11
-6.30607e-11
-2.69562e-10
-7.19425e-11
-7.99361e-12
-2.367e-10
-2.75779e-10
-7.68274e-11
-2.35367e-11
-1.03029e-10
-6.57252e-11
-6.35048e-11
-1.12355e-10
-7.37188e-11
8.12683e-11
0
-2.26485e-11
3.64153e-11
-7.4607e-11
6.21725e-11
-5.41789e-11
-2.30926e-11
8.70415e-11
-3.37508e-11
-4.44089e-12
6.43929e-11
7.54952e-11
7.81597e-11
-8.43769e-12
8.74856e-11
3.90799e-11
4.35207e-11
7.59393e-11
4.39648e-11
-9.59233e-11
-4.26326e-11
-8.43769e-12
-3.64153e-11
0
6.66134e-12
8.88178e-11
-2.04281e-11
7.99361e-12
7.4607e-11
1.11022e-11
-1.08358e-10
3.73035e-11
7.99361e-12
-8.34888e-11
7.99361e-12
-2.70894e-11
-4.70735e-11
-7.59393e-11
-2.04281e-11
-1.64313e-11
-2.30926e-11
-6.52811e-11
-1.33227e-11
9.99201e-11
-3.41949e-11
-4.52971e-11
2.08722e-11
0
6.66134e-12
-4.44089e-13
2.08722e-11
-1.12799e-10
0
6.4837e-11
7.10543e-12
-5.55112e-11
6.08402e-11
1.16351e-10
8.17124e-11
9.37028e-11
7.50511e-11
2.60236e-10
2.08722e-11
-3.10862e-11
2.70894e-11
5.41789e-11
5.86198e-11
1.24345e-11
2.35367e-11
-1.64313e-11
9.63674e-11
2.77112e-10
-1.9984e-11
1.42109e-11
-2.62013e-11
1.07914e-10
1.0969e-10
1.60316e-10
-1.66533e-10
-7.9492e-11
-5.77316e-12
4.44089e-13
-1.63425e-10
-1.66533e-10
-9.41469e-11
-1.63425e-10
-8.30447e-11
1.50102e-10
-1.94067e-10
-1.03029e-10
-1.94067e-10
-2.22045e-12
-6.21725e-12
-1.96732e-10
8.4821e-11
-1.91847e-10
-1.19016e-10
-1.62537e-10
1.77636e-12
-4.44089e-13
-1.89626e-10
-1.63425e-10
-1.37668e-11
-2.9754e-11
1.89182e-10
-3.10862e-12
-8.88178e-12
0
2.39808e-11
1.94511e-10
1.86517e-11
-1.69642e-10
-6.21725e-12
-6.66134e-12
0
-9.32587e-12
-5.50671e-11
-6.66134e-12
1.62537e-10
8.43769e-12
1.93623e-10
1.6076e-10
1.74527e-10
3.01981e-11
-1.66533e-10
-2.66454e-11
0
1.06581e-11
3.55271e-12
3.9968e-12
-2.13163e-11
1.69198e-10
-1.58096e-10
0
1.06581e-11
2.00728e-10
-8.88178e-12
-1.9984e-11
0
-2.22045e-11
0
-3.4639e-11
-1.61648e-10
4.44089e-13
4.44089e-12
4.44089e-13
1.98952e-10
-1.98952e-10
1.64313e-10
-1.94511e-10
2.66454e-11
-1.04361e-10
-2.93099e-11
3.81917e-11
-1.94067e-10
-1.91402e-10
1.90958e-11
1.91847e-10
-1.63425e-10
1.9007e-10
4.44089e-13
-1.27454e-10
8.88178e-13
8.88178e-13
1.64757e-10
1.94511e-10
-1.61204e-10
2.00284e-10
-1.63425e-10
1.93623e-10
1.6831e-10
-5.68434e-11
3.81917e-11
0
1.95843e-10
1.91847e-10
-1.60316e-10
-1.60316e-10
-1.6831e-10
-1.60316e-10
-1.60316e-10
-1.66089e-10
-1.60316e-10
-1.66089e-10
-1.60316e-10
1.61204e-10
-1.60316e-10
-1.5854e-10
-1.62093e-10
-1.60316e-10
-1.60316e-10
-1.62093e-10
-1.60316e-10
-1.85629e-10
-1.60316e-10
1.62093e-10
1.77636e-12
1.77636e-12
2.22045e-12
-2.9754e-11
-2.9754e-11
1.67866e-10
-2.75335e-11
1.6831e-10
-3.01981e-11
5.77316e-12
0
1.63425e-10
0
1.65645e-10
1.65645e-10
1.65201e-10
1.65645e-10
1.37668e-11
1.66089e-10
6.21725e-12
-1.77636e-12
-3.81917e-11
6.26166e-11
1.94955e-10
1.94955e-10
1.33227e-12
1.92735e-10
-1.86517e-11
1.94955e-10
4.44089e-13
0
-1.68754e-10
-1.82077e-11
-1.68754e-10
-1.68754e-10
0
-1.68754e-10
1.74083e-10
-1.74083e-10
-1.77636e-12
-2.26485e-11
3.64153e-11
-5.68434e-11
-1.68754e-10
-1.24345e-11
-1.88294e-10
-1.68754e-10
-1.45217e-10
-1.70974e-10
-1.77636e-12
0
-3.28626e-11
3.9968e-12
1.68754e-10
1.69198e-10
-4.44089e-13
1.68754e-10
4.44089e-13
1.74083e-10
1.77636e-12
1.89182e-10
1.60316e-10
1.65201e-10
1.69642e-10
1.28786e-11
1.89626e-10
1.69642e-10
-8.88178e-13
1.71863e-10
-1.66533e-10
1.66533e-10
1.96732e-10
1.78524e-10
1.33227e-12
1.33227e-12
1.33227e-12
1.33227e-12
-1.64313e-10
1.33227e-12
-1.6831e-10
-1.05693e-10
-3.01981e-11
-5.41789e-11
-3.06422e-11
-3.01981e-11
-5.01821e-11
-3.06422e-11
-4.75175e-11
-9.41469e-11
4.44089e-12
-4.44089e-13
-1.15463e-10
-3.33067e-11
-5.06262e-11
-5.06262e-11
2.66454e-12
-5.06262e-11
-7.90479e-11
-5.06262e-11
-1.63869e-10
8.12683e-11
6.66134e-12
7.99361e-12
6.66134e-12
6.66134e-12
2.88658e-11
1.46549e-11
-8.43769e-12
7.81597e-11
-1.85629e-10
-5.01821e-11
7.59393e-11
0
8.88178e-13
0
0
8.88178e-13
1.06581e-11
8.88178e-13
-1.11022e-11
-6.66134e-12
-7.10543e-12
3.64153e-11
-7.54952e-12
-6.66134e-12
2.35367e-11
-1.55431e-11
5.24025e-11
1.42109e-11
1.87406e-10
1.9984e-11
7.54952e-12
-4.44089e-11
1.9984e-11
1.9984e-11
0
1.9984e-11
6.9722e-11
1.95399e-11
1.76748e-10
2.62013e-11
0
-2.26485e-11
2.88658e-11
2.88658e-11
-7.23865e-11
2.93099e-11
-3.10862e-11
-4.44089e-13
-5.32907e-12
2.93099e-11
1.77636e-12
9.76996e-12
0
0
0
0
4.44089e-13
0
-1.62537e-10
1.68754e-10
2.39808e-11
2.26485e-11
-6.66134e-12
-6.66134e-12
6.4837e-11
-7.10543e-12
2.66454e-12
-6.66134e-12
5.32907e-12
1.65645e-10
2.30926e-11
5.72875e-11
2.22045e-11
2.22045e-11
-7.10543e-12
2.22045e-11
-3.4639e-11
2.22045e-11
1.65201e-10
-4.70735e-11
3.5083e-11
-9.9476e-11
-4.70735e-11
-1.66533e-10
-4.70735e-11
-4.70735e-11
1.55431e-11
-4.70735e-11
4.88498e-12
-3.55271e-12
-3.5083e-11
-1.77636e-12
1.33227e-12
-2.37144e-10
-7.81597e-11
-6.79456e-11
2.22045e-11
-6.79456e-11
-1.68754e-10
-5.37348e-11
-2.9754e-11
3.77476e-11
-5.4623e-11
-2.9754e-11
-3.10862e-12
-5.41789e-11
-4.30767e-11
-4.39648e-11
-1.24345e-11
-8.83738e-11
-2.30926e-11
0
-9.23706e-11
-2.30926e-11
-1.28786e-11
-2.35367e-11
0
-2.30926e-11
-1.86517e-11
5.41789e-11
-1.9984e-11
5.9508e-11
5.41789e-11
-1.9984e-11
2.66454e-12
5.41789e-11
-2.30926e-11
9.28146e-11
-1.56319e-10
7.9492e-11
0
2.22045e-12
7.9492e-11
0
2.35367e-11
7.9492e-11
2.22045e-12
7.90479e-11
0
3.86358e-11
0
-1.05693e-10
4.88498e-11
0
3.90799e-11
4.88498e-11
6.61693e-11
-5.90639e-11
-1.37668e-11
0
0
-2.22045e-12
-4.44089e-13
0
0
-4.44089e-13
-6.21725e-12
-5.59552e-11
0
-1.59872e-11
5.24025e-11
2.67342e-10
-2.57572e-11
5.24025e-11
-1.55431e-11
-2.57572e-11
1.6831e-10
3.37508e-11
1.82965e-10
-1.11022e-11
9.63674e-11
1.61204e-10
-1.11022e-11
9.63674e-11
4.39648e-11
-1.11022e-11
1.65201e-10
4.39648e-11
1.93179e-10
-2.4869e-11
6.21725e-12
-4.79616e-11
-2.4869e-11
6.21725e-12
-2.53131e-11
-6.17284e-11
-1.76748e-10
-1.68754e-11
-1.63425e-10
-3.33067e-11
6.21725e-12
2.66454e-12
-2.57572e-11
6.21725e-12
-5.50671e-11
-7.06102e-11
-1.66089e-10
-2.57572e-11
-4.44089e-13
-7.37188e-11
-2.70894e-11
-4.4853e-11
1.59872e-11
1.55431e-11
5.32907e-12
7.99361e-12
-1.11022e-11
7.99361e-12
1.62537e-10
-7.37188e-11
4.44089e-13
0
-8.17124e-11
0
3.01981e-11
-8.17124e-11
-3.9968e-12
-8.17124e-11
-1.62537e-10
9.59233e-11
3.86358e-11
1.42109e-11
-8.65974e-11
-1.68754e-11
-3.15303e-11
-4.57412e-11
-2.84217e-11
-8.65974e-11
-1.63869e-10
-4.44089e-13
-7.54952e-12
-4.39648e-11
1.03917e-10
-6.66134e-12
-8.12683e-11
1.03917e-10
-4.79616e-11
1.03917e-10
-1.33227e-12
3.10862e-12
-9.23706e-11
0
9.54792e-11
-1.28786e-11
-5.41789e-11
-8.43769e-12
5.01821e-11
9.54792e-11
4.44089e-13
5.9952e-11
1.82077e-11
-3.86358e-11
-9.37028e-11
6.21725e-12
0
-5.24025e-11
2.22045e-12
-9.37028e-11
4.44089e-13
-3.06422e-11
1.06581e-10
2.43805e-10
-4.44089e-13
3.90799e-11
1.05249e-10
6.21725e-11
1.62981e-10
-4.44089e-13
1.63869e-10
1.46549e-11
1.37668e-11
2.44693e-10
9.41469e-11
2.62013e-11
1.04361e-10
5.32907e-11
2.14051e-10
9.41469e-11
1.64313e-10
-5.10703e-11
-3.10862e-12
-9.9476e-11
-5.10703e-11
-1.77636e-12
-5.10703e-11
-5.10703e-11
-8.39329e-11
-7.54952e-12
4.44089e-12
-9.50351e-11
-9.68114e-11
4.44089e-13
-1.19904e-11
-9.50351e-11
-3.06422e-11
-9.50351e-11
-8.88178e-13
-9.50351e-11
-1.87406e-10
-5.41789e-11
8.88178e-13
3.77476e-11
1.9984e-11
8.88178e-13
1.28786e-11
1.9984e-11
3.15303e-11
-8.74856e-11
-1.19904e-11
6.26166e-11
-8.88178e-13
-4.66294e-11
-8.30447e-11
-8.88178e-13
-1.77636e-12
0
-4.66294e-11
0
-8.88178e-13
3.37508e-11
-1.42109e-11
-3.81917e-11
-4.04121e-11
-6.9722e-11
-3.33067e-11
-4.04121e-11
1.19904e-11
2.35367e-11
-1.61204e-10
-3.95239e-11
7.90479e-11
3.81917e-11
2.30926e-11
2.30926e-11
-3.95239e-11
2.30926e-11
3.77476e-11
2.30926e-11
7.37188e-11
5.9952e-11
8.43769e-12
7.86038e-11
1.11022e-11
6.4837e-11
5.9952e-11
1.11022e-11
-2.22045e-11
1.02141e-11
-1.42109e-11
3.15303e-11
-9.9476e-11
6.66134e-12
3.86358e-11
-4.44089e-11
6.92779e-11
3.86358e-11
3.10862e-12
3.95239e-11
-8.34888e-11
7.99361e-12
1.71418e-10
1.803e-10
5.72875e-11
1.71418e-10
7.99361e-12
5.72875e-11
2.20268e-10
5.72875e-11
1.88738e-10
3.64153e-11
2.79332e-10
1.61204e-10
2.88658e-11
2.79332e-10
-1.33227e-12
2.88658e-11
1.66089e-10
2.88658e-11
2.02061e-10
-1.65201e-10
-7.90479e-11
-7.77156e-11
2.22045e-12
-2.16271e-10
-2.70894e-11
2.22045e-12
-4.44089e-12
2.22045e-12
-1.83853e-10
-2.14939e-10
2.93099e-11
-5.86198e-11
2.22045e-12
-1.72307e-10
-4.70735e-11
2.22045e-12
2.22045e-12
2.22045e-12
-2.22045e-12