/*--------------------------------*- C++ -*----------------------------------*\
  =========                 |
  \\      /  F ield         | OpenFOAM: The Open Source CFD Toolbox
   \\    /   O peration     | Website:  https://openfoam.org
    \\  /    A nd           | Version:  10
     \\/     M anipulation  |
\*---------------------------------------------------------------------------*/
FoamFile
{
    format      ascii;
    class       volScalarField;
    location    "2.9";
    object      gradTx;
}
// * * * * * * * * * * * * * * * * * * * * * * * * * * * * * * * * * * * * * //

dimensions      [0 -1 0 1 0 0 0];

internalField   nonuniform List<scalar> 
3000
(
-494.267
-5.70007
-0.0330518
-0.000128111
-3.73362e-07
-8.69083e-10
1.62981e-10
-5.41789e-11
0
1.5854e-10
-494.267
-5.70007
-0.0330518
-0.000128111
-3.73366e-07
-9.00613e-10
2.88658e-11
-1.86517e-11
-5.32907e-12
2.75335e-11
-494.267
-5.70007
-0.0330518
-0.000128111
-3.73385e-07
-9.09051e-10
0
1.98952e-10
4.4853e-11
-1.15907e-10
-494.267
-5.70007
-0.0330518
-0.000128111
-3.73183e-07
-9.75664e-10
0
0
-1.67422e-10
1.02141e-11
-494.267
-5.70007
-0.0330518
-0.000128111
-3.73372e-07
-8.75744e-10
1.9984e-10
1.69642e-10
-1.90958e-10
-1.62981e-10
-494.267
-5.70007
-0.0330518
-0.000128111
-3.73335e-07
-9.05942e-10
-3.19744e-11
1.98952e-10
7.68274e-11
-1.9007e-10
-494.267
-5.70007
-0.0330518
-0.000128111
-3.73165e-07
-7.4829e-10
2.22045e-12
0
-1.91402e-10
1.42109e-11
-494.267
-5.70007
-0.0330518
-0.000128111
-3.73378e-07
-9.41913e-10
1.62981e-10
2.35367e-11
-1.86517e-10
-7.54952e-12
-494.267
-5.70007
-0.0330518
-0.000128111
-3.73212e-07
-9.7744e-10
-1.6076e-10
1.5854e-10
-3.81917e-11
-1.59428e-10
-494.267
-5.70007
-0.0330518
-0.000128111
-3.73262e-07
-7.54952e-10
-6.21725e-12
-1.64313e-10
-1.01696e-10
1.65645e-10
-494.267
-5.70007
-0.0330518
-0.000128111
-3.73414e-07
-9.08607e-10
1.92735e-10
4.88498e-12
-1.68754e-10
3.55271e-12
-494.267
-5.70007
-0.0330518
-0.000128111
-3.73411e-07
-8.89955e-10
7.10543e-11
-2.30926e-11
1.64313e-11
-1.02141e-11
-494.267
-5.70007
-0.0330518
-0.000128111
-3.73352e-07
-9.01501e-10
8.43769e-12
1.13243e-10
7.99361e-12
-6.88338e-11
-494.267
-5.70007
-0.0330518
-0.000128111
-3.73337e-07
-9.46354e-10
-2.39808e-11
0
-4.08562e-11
-5.37348e-11
-494.267
-5.70007
-0.0330518
-0.000128111
-3.73431e-07
-8.46434e-10
1.0747e-10
0
-8.65974e-11
-1.19904e-11
-494.267
-5.70007
-0.0330518
-0.000128111
-3.73391e-07
-9.01945e-10
8.43769e-12
1.13243e-10
7.99361e-12
-2.84217e-11
-494.267
-5.70007
-0.0330518
-0.000128111
-3.73445e-07
-8.78853e-10
1.0747e-10
0
-8.61533e-11
-5.9952e-11
-494.267
-5.70007
-0.0330518
-0.000128111
-3.73354e-07
-9.64118e-10
1.55431e-11
0
-7.32747e-11
7.37188e-11
-494.267
-5.70007
-0.0330518
-0.000128111
-3.73333e-07
-9.08607e-10
-2.04281e-11
-7.23865e-11
-9.14824e-11
5.28466e-11
-494.267
-5.70007
-0.0330518
-0.000128111
-3.7328e-07
-9.1438e-10
1.17684e-10
0
-1.72751e-10
2.75335e-11
-494.267
-5.70007
-0.0330518
-0.000128111
-3.73388e-07
-9.09051e-10
0
1.98952e-10
4.4853e-11
-1.15907e-10
-494.267
-5.70007
-0.0330518
-0.000128111
-3.73392e-07
-8.26006e-10
2.44249e-11
3.77476e-11
-7.99361e-12
1.77636e-12
-494.267
-5.70007
-0.0330518
-0.000128111
-3.73289e-07
-9.61453e-10
-3.9968e-12
-2.13163e-11
-1.08358e-10
1.08358e-10
-494.267
-5.70007
-0.0330518
-0.000128111
-3.73432e-07
-8.89067e-10
9.14824e-11
-4.39648e-11
-4.79616e-11
1.06581e-11
-494.267
-5.70007
-0.0330518
-0.000128111
-3.734e-07
-9.01945e-10
2.04281e-11
4.44089e-13
-2.08722e-11
9.9476e-11
-494.267
-5.70007
-0.0330518
-0.000128111
-3.73385e-07
-9.90319e-10
1.09246e-10
-2.13163e-11
-2.53131e-11
1.14131e-10
-494.267
-5.70007
-0.0330518
-0.000128111
-3.734e-07
-8.92619e-10
4.39648e-11
0
-2.35367e-11
2.35367e-11
-494.267
-5.70007
-0.0330518
-0.000128111
-3.73346e-07
-9.7744e-10
-2.30926e-11
0
-9.10383e-11
7.06102e-11
-494.267
-5.70007
-0.0330518
-0.000128111
-3.73447e-07
-8.80629e-10
2.04281e-11
-2.04281e-11
6.21725e-11
4.35207e-11
-494.267
-5.70007
-0.0330518
-0.000128111
-3.73364e-07
-9.05498e-10
8.88178e-12
3.81917e-11
2.88658e-11
-2.88658e-11
-494.267
-5.70007
-0.0330518
-0.000128111
-3.73353e-07
-9.08607e-10
1.67422e-10
0
-1.67422e-10
1.02141e-11
-494.267
-5.70007
-0.0330518
-0.000128111
-3.7338e-07
-8.56204e-10
1.9984e-11
0
-4.08562e-11
7.54952e-12
-494.267
-5.70007
-0.0330518
-0.000128111
-3.73432e-07
-8.93063e-10
3.37508e-11
6.26166e-11
1.02141e-11
1.33227e-12
-494.267
-5.70007
-0.0330518
-0.000128111
-3.73403e-07
-8.76188e-10
3.15303e-11
0
-5.15143e-11
-1.02141e-11
-494.267
-5.70007
-0.0330518
-0.000128111
-3.73399e-07
-9.66782e-10
-7.28306e-11
6.4837e-11
9.76996e-11
-9.76996e-11
-494.267
-5.70007
-0.0330518
-0.000128111
-3.73333e-07
-8.89067e-10
-2.08722e-11
-2.44249e-11
-9.14824e-11
-3.19744e-11
-494.267
-5.70007
-0.0330518
-0.000128111
-3.73334e-07
-9.6767e-10
-8.92619e-11
6.4837e-11
9.76996e-11
-9.81437e-11
-494.267
-5.70007
-0.0330518
-0.000128111
-3.7349e-07
-8.32223e-10
8.08242e-11
0
4.44089e-13
1.55431e-11
-494.267
-5.70007
-0.0330518
-0.000128111
-3.73407e-07
-9.44134e-10
2.39808e-11
-2.30926e-11
-8.65974e-11
4.39648e-11
-494.267
-5.70007
-0.0330518
-0.000128111
-3.73358e-07
-7.35856e-10
-2.17604e-11
-1.66978e-10
2.62013e-11
-2.66454e-11
-494.267
-5.70007
-0.0330518
-0.000128111
-3.73423e-07
-8.72635e-10
2.00284e-10
1.62537e-10
-1.90958e-10
-1.71418e-10
-494.267
-5.70007
-0.0330518
-0.000128111
-3.73481e-07
-8.26006e-10
9.19265e-11
-1.9984e-11
-7.06102e-11
2.88658e-11
-494.267
-5.70007
-0.0330518
-0.000128111
-3.73304e-07
-8.81073e-10
-9.23706e-11
-2.04281e-11
-2.08722e-11
2.04281e-11
-494.267
-5.70007
-0.0330518
-0.000128111
-3.73433e-07
-8.24674e-10
3.41949e-11
-1.09246e-10
3.10862e-11
9.23706e-11
-494.267
-5.70007
-0.0330518
-0.000128111
-3.73474e-07
-9.01945e-10
8.30447e-11
0
-8.30447e-11
8.30447e-11
-494.267
-5.70007
-0.0330518
-0.000128111
-3.73447e-07
-8.81073e-10
9.99201e-11
-2.04281e-11
-1.68754e-11
4.44089e-11
-494.267
-5.70007
-0.0330518
-0.000128111
-3.73416e-07
-9.01501e-10
8.30447e-11
0
0
8.30447e-11
-494.267
-5.70007
-0.0330518
-0.000128111
-3.73354e-07
-8.18456e-10
-2.62013e-11
0
-1.82077e-11
-6.52811e-11
-494.267
-5.70007
-0.0330518
-0.000128111
-3.73432e-07
-8.80629e-10
1.03473e-10
-2.08722e-11
-2.04281e-11
1.12355e-10
-494.267
-5.70007
-0.0330518
-0.000128111
-3.73423e-07
-9.08607e-10
2.75335e-11
0
1.02141e-11
8.30447e-11
-494.267
-5.70007
-0.0330518
-0.000128111
-3.73384e-07
-7.10987e-10
-2.35367e-11
0
6.88338e-11
-1.9007e-10
-494.267
-5.70007
-0.0330518
-0.000128111
-3.73398e-07
-9.01945e-10
8.43769e-12
1.13243e-10
-4.79616e-11
-1.28786e-11
-494.267
-5.70007
-0.0330518
-0.000128111
-3.73388e-07
-9.01945e-10
8.4821e-11
0
-8.4821e-11
8.4821e-11
-494.267
-5.70007
-0.0330518
-0.000128111
-3.73333e-07
-8.14016e-10
-2.08722e-11
-9.99201e-11
7.99361e-12
8.52651e-11
-494.267
-5.70007
-0.0330518
-0.000128111
-3.73448e-07
-8.2645e-10
1.08802e-10
0
-1.08802e-10
3.28626e-11
-494.267
-5.70007
-0.0330518
-0.000128111
-3.73492e-07
-8.80629e-10
8.4821e-11
-2.08722e-11
-1.77636e-12
1.02141e-11
-494.267
-5.70007
-0.0330518
-0.000128111
-3.73317e-07
-9.13936e-10
-5.50671e-11
8.30447e-11
3.86358e-11
-3.86358e-11
-494.267
-5.70007
-0.0330518
-0.000128111
-3.73376e-07
-8.69971e-10
-6.66134e-11
0
2.57572e-11
-4.66294e-11
-494.267
-5.70007
-0.0330518
-0.000128111
-3.73305e-07
-8.5798e-10
-3.86358e-11
5.59552e-11
-2.35367e-11
-3.5083e-11
-494.267
-5.70007
-0.0330518
-0.000128111
-3.73334e-07
-7.06546e-10
2.70894e-11
4.44089e-13
1.33227e-12
-1.70974e-10
-494.267
-5.70007
-0.0330518
-0.000128111
-3.73367e-07
-7.41629e-10
3.81917e-11
-1.5854e-10
-3.73035e-11
-1.77636e-12
-494.267
-5.70007
-0.0330518
-0.000128111
-3.73489e-07
-8.31335e-10
9.23706e-11
0
-9.23706e-11
1.06581e-11
-494.267
-5.70007
-0.0330518
-0.000128111
-3.73396e-07
-8.81073e-10
0
0
6.26166e-11
7.90479e-11
-494.267
-5.70007
-0.0330518
-0.000128111
-3.73332e-07
-8.89511e-10
-6.57252e-11
6.4837e-11
7.41629e-11
-8.79297e-11
-494.267
-5.70007
-0.0330518
-0.000128111
-3.73453e-07
-9.01945e-10
6.26166e-11
2.08722e-11
0
-4.44089e-13
-494.267
-5.70007
-0.0330518
-0.000128111
-3.73445e-07
-8.18456e-10
4.39648e-11
-3.86358e-11
-9.32587e-12
2.04281e-11
-494.267
-5.70007
-0.0330518
-0.000128111
-3.73334e-07
-9.01501e-10
-6.26166e-11
4.44089e-13
6.21725e-11
2.04281e-11
-494.267
-5.70007
-0.0330518
-0.000128111
-3.73417e-07
-8.9484e-10
-2.62013e-11
6.26166e-11
6.4837e-11
-6.4837e-11
-494.267
-5.70007
-0.0330518
-0.000128111
-3.73335e-07
-8.18456e-10
-7.54952e-12
-6.17284e-11
-2.04281e-11
9.19265e-11
-494.267
-5.70007
-0.0330518
-0.000128111
-3.73423e-07
-9.08607e-10
2.75335e-11
3.81917e-11
1.02141e-11
-1.02141e-11
-494.267
-5.70007
-0.0330518
-0.000128111
-3.73409e-07
-7.98028e-10
1.94511e-10
-1.62537e-10
0
-7.54952e-12
-494.267
-5.70007
-0.0330518
-0.000128111
-3.73354e-07
-8.89067e-10
1.59872e-11
-1.5099e-11
-8.88178e-13
1.59872e-11
-494.267
-5.70007
-0.0330518
-0.000128111
-3.73353e-07
-9.54348e-10
-1.68754e-11
-2.39808e-11
-6.9722e-11
6.9722e-11
-494.267
-5.70007
-0.0330518
-0.000128111
-3.73491e-07
-9.03722e-10
7.54952e-12
2.30926e-11
-7.54952e-12
7.41629e-11
-494.267
-5.70007
-0.0330518
-0.000128111
-3.73308e-07
-9.68114e-10
-8.17124e-11
8.30447e-11
2.62013e-11
-8.57092e-11
-494.267
-5.70007
-0.0330518
-0.000128111
-3.73309e-07
-9.66338e-10
-6.61693e-11
0
2.57572e-11
7.23865e-11
-494.267
-5.70007
-0.0330518
-0.000128111
-3.73395e-07
-8.9484e-10
-4.66294e-11
5.50671e-11
2.62013e-11
-5.77316e-11
-494.267
-5.70007
-0.0330518
-0.000128111
-3.73387e-07
-9.01501e-10
9.23706e-11
0
-6.88338e-11
0
-494.267
-5.70007
-0.0330518
-0.000128111
-3.73395e-07
-8.32223e-10
-4.66294e-11
-6.26166e-11
-1.77636e-11
9.54792e-11
-494.267
-5.70007
-0.0330518
-0.000128111
-3.73327e-07
-9.05942e-10
-8.88178e-12
1.98952e-10
-1.02141e-11
-1.79412e-10
-494.267
-5.70007
-0.0330518
-0.000128111
-3.73169e-07
-7.41185e-10
-1.60316e-10
0
-3.81917e-11
-1.59428e-10
-494.267
-5.70007
-0.0330518
-0.000128111
-3.73376e-07
-8.30891e-10
-2.04281e-11
-7.23865e-11
-9.14824e-11
5.28466e-11
-494.267
-5.70007
-0.0330518
-0.000128111
-3.73388e-07
-8.81517e-10
2.08722e-11
-2.08722e-11
-2.04281e-11
4.44089e-11
-494.267
-5.70007
-0.0330518
-0.000128111
-3.73434e-07
-9.02833e-10
9.14824e-11
-8.74856e-11
-2.66454e-11
-8.88178e-13
-494.267
-5.70007
-0.0330518
-0.000128111
-3.73447e-07
-8.2645e-10
8.30447e-11
0
-8.30447e-11
-5.50671e-11
-494.267
-5.70007
-0.0330518
-0.000128111
-3.73305e-07
-8.18456e-10
-1.82077e-11
-6.26166e-11
-8.43769e-12
4.35207e-11
-494.267
-5.70007
-0.0330518
-0.000128111
-3.73432e-07
-9.16156e-10
3.95239e-11
2.04281e-11
4.44089e-13
-2.08722e-11
-494.267
-5.70007
-0.0330518
-0.000128111
-3.73364e-07
-8.58424e-10
-2.62013e-11
2.39808e-11
9.50351e-11
-8.21565e-11
-494.267
-5.70007
-0.0330518
-0.000128111
-3.73428e-07
-8.81073e-10
7.90479e-11
4.39648e-11
-9.9476e-11
-4.44089e-11
-494.267
-5.70007
-0.0330518
-0.000128111
-3.73309e-07
-7.06546e-10
-4.57412e-11
-1.62537e-10
-8.43769e-12
-3.59712e-11
-494.267
-5.70007
-0.0330518
-0.000128111
-3.73262e-07
-9.17488e-10
4.44089e-13
-1.33227e-12
-1.08802e-10
5.50671e-11
-494.267
-5.70007
-0.0330518
-0.000128111
-3.73327e-07
-9.0683e-10
-4.4853e-11
-8.88178e-12
-5.32907e-12
2.02061e-10
-494.267
-5.70007
-0.0330518
-0.000128111
-3.73422e-07
-9.00613e-10
0
2.88658e-11
0
-2.88658e-11
-494.267
-5.70007
-0.0330518
-0.000128111
-3.73374e-07
-8.02469e-10
1.42109e-11
-1.62093e-10
1.82077e-11
4.4853e-11
-494.267
-5.70007
-0.0330518
-0.000128111
-3.73372e-07
-9.05942e-10
0
3.77476e-11
0
-3.77476e-11
-494.267
-5.70007
-0.0330518
-0.000128111
-3.73364e-07
-9.35696e-10
2.79776e-11
8.88178e-12
1.77636e-12
1.86517e-11
-494.267
-5.70007
-0.0330518
-0.000128111
-3.73393e-07
-9.13492e-10
8.43769e-12
-8.43769e-12
-3.81917e-11
-2.93099e-11
-494.267
-5.70007
-0.0330518
-0.000128111
-3.73372e-07
-9.31255e-10
-8.43769e-12
1.02141e-11
-1.02141e-11
-1.86517e-11
-494.267
-5.70007
-0.0330518
-0.000128111
-3.73412e-07
-9.35696e-10
1.69198e-10
3.64153e-11
-1.69642e-10
1.62537e-10
-494.267
-5.70007
-0.0330518
-0.000128111
-3.73198e-07
-9.04166e-10
-1.63425e-10
1.64757e-10
1.64313e-10
-1.63869e-10
1.77636e-12
2.22045e-12
-2.66454e-12
3.9968e-12
-3.9968e-12
4.44089e-13
0
-2.22045e-12
5.77316e-12
-3.9968e-12
-9.76996e-12
-1.33227e-12
1.37668e-11
1.77636e-12
1.62981e-10
-1.28786e-11
-1.64313e-10
1.42109e-11
1.27454e-10
-8.88178e-13
-4.66294e-11
-5.06262e-11
1.77636e-12
-8.88178e-13
1.59872e-10
-1.28786e-11
-1.63869e-10
1.68754e-11
-1.33227e-12
-1.33227e-12
4.88498e-12
1.5854e-10
5.59552e-11
0
-8.74856e-11
2.22045e-12
3.10862e-11
-1.60316e-10
-7.54952e-12
0
1.78524e-10
0
-1.55431e-10
1.65201e-10
5.77316e-12
-1.70086e-10
-8.88178e-13
5.32907e-12
1.59872e-10
-4.44089e-13
-4.66294e-11
1.91847e-10
4.44089e-13
-1.66978e-10
1.58984e-10
-1.28786e-11
3.9968e-12
1.68754e-11
-1.69198e-10
-1.33227e-12
1.9984e-11
-1.64757e-10
2.22045e-12
0
5.32907e-12
-4.44089e-12
-8.88178e-13
6.21725e-11
1.60316e-10
-5.77316e-11
-4.88498e-12
-1.15463e-11
1.9007e-10
1.82077e-11
1.33227e-12
-2.84217e-11
-1.62981e-10
0
0
3.9968e-12
1.98064e-10
8.88178e-12
4.44089e-13
1.64757e-10
-1.77636e-12
-1.02141e-11
-1.60316e-10
-1.59428e-10
1.60316e-10
4.44089e-12
1.0969e-10
0
-8.88178e-13
0
4.44089e-13
-2.22045e-12
1.77636e-12
-9.72555e-11
-2.66454e-12
9.99201e-11
-9.76996e-12
-1.33227e-12
1.74971e-10
1.77636e-12
1.77636e-12
-2.70894e-11
-1.64313e-10
2.84217e-11
1.27454e-10
-8.88178e-13
-1.24345e-11
6.03961e-11
2.04281e-11
1.33227e-11
-8.43769e-12
1.11022e-11
-2.30926e-11
2.04281e-11
1.42109e-11
-1.05693e-10
-9.9476e-11
4.04121e-11
7.99361e-12
0
1.05693e-10
2.4869e-11
-2.84217e-11
-1.01696e-10
2.84217e-11
1.06137e-10
-4.44089e-11
4.44089e-11
0
1.02141e-11
9.19265e-11
3.86358e-11
-1.33227e-12
-2.70894e-11
-3.59712e-11
1.5099e-11
5.4623e-11
4.08562e-11
-3.41949e-11
-6.61693e-11
7.23865e-11
2.35367e-11
-2.9754e-11
3.55271e-11
2.84217e-11
-1.15463e-11
-4.39648e-11
0
3.9968e-11
2.9754e-11
1.77636e-11
-5.19584e-11
-2.84217e-11
-6.26166e-11
2.93099e-11
8.4821e-11
-2.04281e-11
4.04121e-11
6.17284e-11
6.66134e-12
5.19584e-11
-2.88658e-11
0
3.37508e-11
-5.9952e-11
-1.06581e-11
-1.37668e-11
-3.64153e-11
9.23706e-11
3.68594e-11
4.44089e-13
-8.70415e-11
-5.32907e-12
0
-8.88178e-13
9.05942e-11
5.55112e-11
0
3.9968e-11
2.9754e-11
1.77636e-11
-5.19584e-11
4.44089e-13
-6.21725e-11
0
1.14575e-10
7.99361e-12
1.74527e-10
-1.64313e-11
-1.64313e-10
1.33227e-11
-1.77636e-11
1.68754e-10
1.77636e-11
-5.77316e-12
1.63869e-10
-4.66294e-11
-5.06262e-11
1.77636e-12
1.6831e-10
-6.21725e-12
-7.54952e-12
2.22045e-12
-1.56763e-10
1.62981e-10
-3.9968e-12
-4.44089e-11
-2.9754e-11
-4.70735e-11
2.88658e-11
1.05693e-10
-5.19584e-11
-2.93099e-11
-6.17284e-11
2.93099e-11
6.4837e-11
6.26166e-11
-9.81437e-11
3.33067e-11
3.37508e-11
-5.19584e-11
-2.70894e-11
6.30607e-11
7.90479e-11
-6.30607e-11
1.24345e-11
5.9952e-11
6.03961e-11
-2.75335e-11
3.64153e-11
8.43769e-12
-3.9968e-12
0
-2.70894e-11
-6.66134e-11
-6.57252e-11
9.59233e-11
-7.90479e-11
-4.44089e-13
0
-7.4607e-11
7.4607e-11
4.44089e-13
-4.44089e-13
4.44089e-13
-7.50511e-11
-7.50511e-11
-4.92939e-11
9.54792e-11
0
-5.9952e-11
-5.59552e-11
7.01661e-11
0
-4.9738e-11
5.68434e-11
1.06581e-11
0
0
-2.30926e-11
1.24345e-11
7.50511e-11
0
-6.43929e-11
-2.30926e-11
6.79456e-11
8.30447e-11
-7.28306e-11
1.24345e-11
7.28306e-11
-7.77156e-11
-1.42109e-11
2.35367e-11
3.64153e-11
5.01821e-11
-9.32587e-12
2.13163e-11
-8.88178e-13
-1.03473e-10
-2.30926e-11
0
3.5083e-11
4.39648e-11
4.84057e-11
0
-3.9968e-12
-3.37508e-11
0
0
2.93099e-11
4.44089e-12
-3.37508e-11
0
0
2.93099e-11
4.44089e-12
4.88498e-12
-7.54952e-12
5.63993e-11
0
-5.63993e-11
1.6831e-10
-4.44089e-13
-1.60316e-10
-7.54952e-12
0
-4.44089e-11
-3.68594e-11
0
1.02141e-11
1.06581e-11
3.81917e-11
1.06137e-10
-9.54792e-11
-2.66454e-12
8.34888e-11
-1.24345e-11
-1.37668e-11
4.4853e-11
3.64153e-11
8.43769e-12
-1.19904e-11
0
2.04281e-11
1.42109e-11
-3.10862e-11
1.06581e-11
-1.24345e-11
2.79776e-11
1.24345e-11
-6.21725e-11
2.22045e-11
0
-4.44089e-13
7.4607e-11
-5.77316e-11
-1.00364e-10
0
9.4591e-11
8.21565e-11
-9.32587e-11
-9.23706e-11
8.88178e-13
7.99361e-12
1.05693e-10
2.22045e-12
4.44089e-13
-1.06581e-11
8.34888e-11
7.32747e-11
1.77636e-12
5.77316e-12
0
-1.77636e-11
2.30926e-11
1.77636e-11
-4.44089e-12
-8.88178e-13
-2.70894e-11
8.12683e-11
1.59872e-11
-7.10543e-11
0
8.30447e-11
-1.33227e-12
-9.32587e-11
-2.70894e-11
9.32587e-12
0
-2.57572e-11
-2.30926e-11
-7.01661e-11
-2.35367e-11
0
2.35367e-11
9.63674e-11
3.5083e-11
-1.02141e-11
5.68434e-11
4.44089e-13
-2.08722e-11
4.08562e-11
-8.17124e-11
2.08722e-11
4.39648e-11
-4.57412e-11
4.44089e-12
0
-1.37668e-11
3.10862e-11
1.5099e-11
1.6076e-10
-4.44089e-13
-1.61648e-10
1.62537e-10
-3.06422e-11
-8.88178e-12
8.43769e-12
3.73035e-11
0
1.59428e-10
1.57208e-10
-1.59428e-10
-1.57208e-10
1.59872e-10
-4.44089e-13
9.23706e-11
2.88658e-11
-8.12683e-11
0
8.21565e-11
-3.77476e-11
8.88178e-13
-5.55112e-11
-5.01821e-11
4.44089e-11
1.15907e-10
4.44089e-11
-2.04281e-11
-4.39648e-11
-7.50511e-11
2.13163e-11
-1.02141e-11
5.32907e-11
1.06581e-11
-7.50511e-11
-5.68434e-11
2.44249e-11
1.01696e-10
-8.26006e-11
-9.9476e-11
-2.53131e-11
0
5.37348e-11
7.54952e-12
-5.15143e-11
9.54792e-11
0
0
0
-1.24345e-11
1.24345e-11
-8.30447e-11
0
8.30447e-11
-1.24345e-11
-5.19584e-11
6.43929e-11
8.17124e-11
0
-3.73035e-11
-5.32907e-12
-3.19744e-11
-7.14984e-11
6.43929e-11
1.28786e-11
2.04281e-11
0
0
-6.26166e-11
-8.26006e-11
8.30447e-11
6.21725e-11
0
-6.21725e-11
-5.9508e-11
2.08722e-11
0
8.30447e-11
7.28306e-11
-8.57092e-11
-1.42109e-11
9.23706e-11
-8.88178e-13
-1.90958e-11
2.84217e-11
-2.70894e-11
4.44089e-13
-5.63993e-11
0
9.54792e-11
-5.68434e-11
1.73195e-11
0
0
2.04281e-11
-6.21725e-12
-5.50671e-11
0
0
1.68754e-10
3.9968e-12
-1.17684e-10
0
-5.50671e-11
1.33227e-12
-4.66294e-11
1.91847e-10
-1.64313e-11
-1.67866e-10
1.80744e-10
-1.28786e-11
0
1.68754e-11
-1.69198e-10
1.62981e-10
6.88338e-11
1.46549e-11
-3.68594e-11
-4.44089e-13
3.77476e-11
-7.19425e-11
0
7.14984e-11
-2.93099e-11
8.88178e-13
7.99361e-12
4.44089e-13
-4.44089e-13
-7.41629e-11
9.14824e-11
6.21725e-12
1.37668e-11
-8.43769e-12
-5.32907e-12
5.68434e-11
-4.88498e-12
-5.06262e-11
-9.54792e-11
-2.35367e-11
1.0747e-10
4.52971e-11
-2.26485e-11
3.95239e-11
-4.26326e-11
-3.9968e-12
9.54792e-11
-8.88178e-13
3.55271e-12
-4.26326e-11
-7.86038e-11
3.10862e-11
2.35367e-11
0
0
1.24345e-11
-6.21725e-12
1.05693e-10
3.33067e-11
-5.10703e-11
-6.66134e-11
-5.59552e-11
-3.37508e-11
6.83897e-11
5.37348e-11
3.24185e-11
2.04281e-11
4.75175e-11
6.21725e-12
1.73195e-11
-9.01501e-11
-4.88498e-12
2.39808e-11
0
3.86358e-11
-3.55271e-12
6.83897e-11
1.59872e-11
-3.73035e-11
-1.55431e-11
-5.77316e-11
9.19265e-11
9.28146e-11
-7.10543e-12
-2.66454e-12
4.44089e-13
8.30447e-11
-1.02141e-11
-2.66454e-11
-1.11022e-11
-5.55112e-11
5.9508e-11
4.39648e-11
0
-2.04281e-11
-3.9968e-12
8.43769e-12
1.72751e-10
-2.30926e-11
0
-5.32907e-12
-1.96287e-10
1.90958e-11
0
-1.90958e-11
2.35367e-11
3.55271e-11
9.32587e-12
8.88178e-13
1.65201e-10
1.59428e-10
-1.81632e-10
-1.60316e-10
1.73195e-11
-5.32907e-12
1.64313e-10
9.59233e-11
-2.9754e-11
-1.86517e-11
2.84217e-11
3.77476e-11
-7.19425e-11
-2.9754e-11
7.19425e-11
-8.88178e-13
-4.75175e-11
2.04281e-11
-5.63993e-11
-2.70894e-11
6.43929e-11
0
8.88178e-13
1.64313e-11
-6.21725e-12
1.64313e-11
-8.21565e-11
-8.74856e-11
7.10543e-11
5.4623e-11
1.59872e-11
1.55431e-11
-3.15303e-11
-8.12683e-11
-5.4623e-11
0
7.10543e-11
-5.10703e-11
6.35048e-11
1.02141e-11
-1.9984e-11
7.10543e-11
3.86358e-11
-2.93099e-11
-7.19425e-11
-3.90799e-11
-1.06581e-11
0
-1.02141e-11
7.10543e-12
-2.13163e-11
-6.17284e-11
2.13163e-11
1.06581e-11
6.66134e-12
1.03473e-10
4.66294e-11
-2.66454e-11
-1.11022e-11
7.10543e-12
5.37348e-11
-6.17284e-11
-9.32587e-12
2.13163e-11
-8.88178e-13
2.39808e-11
5.28466e-11
-1.82077e-11
1.55431e-11
4.44089e-13
-1.59872e-11
-4.70735e-11
8.57092e-11
9.19265e-11
-3.10862e-12
-3.10862e-12
3.9968e-12
5.72875e-11
-4.84057e-11
-3.55271e-11
-2.13163e-11
2.75335e-11
3.10862e-11
-8.21565e-11
4.44089e-13
6.17284e-11
-7.59393e-11
-4.44089e-13
9.76996e-12
4.44089e-13
-3.10862e-11
-2.84217e-11
3.06422e-11
1.86517e-11
-4.44089e-13
1.72751e-10
-3.9968e-12
-1.72751e-10
1.5854e-10
-2.79776e-11
-1.54543e-10
1.97176e-10
-7.10543e-12
-1.59428e-10
0
-2.66454e-12
1.62093e-10
-7.99361e-12
9.76996e-12
-9.99201e-11
-3.10862e-12
1.0747e-10
-1.42109e-11
0
-5.55112e-11
6.66134e-12
1.68754e-11
-2.04281e-11
0
7.59393e-11
0
4.04121e-11
1.90958e-11
-7.4607e-11
-6.21725e-12
4.9738e-11
8.88178e-13
5.37348e-11
9.32587e-12
0
0
-2.35367e-11
-9.54792e-11
0
0
5.68434e-11
5.06262e-11
3.90799e-11
1.5099e-11
-8.21565e-11
-1.64313e-11
9.14824e-11
4.35207e-11
2.30926e-11
-1.77636e-11
-6.66134e-12
5.9952e-11
6.88338e-11
-2.44249e-11
-9.32587e-12
2.44249e-11
-6.17284e-11
-7.50511e-11
0
6.26166e-11
-3.15303e-11
-9.41469e-11
0
1.55431e-11
0
-1.55431e-11
-2.66454e-12
7.81597e-11
7.14984e-11
1.86517e-11
-2.13163e-11
-1.11022e-11
3.41949e-11
8.08242e-11
-5.50671e-11
-2.08722e-11
7.81597e-11
-5.72875e-11
1.82077e-11
0
-3.90799e-11
2.08722e-11
8.30447e-11
-2.44249e-11
-2.75335e-11
2.4869e-11
5.4623e-11
-5.41789e-11
-6.88338e-11
-6.21725e-12
-3.10862e-11
4.04121e-11
-9.32587e-12
1.81632e-10
0
-3.64153e-11
2.00728e-10
-1.32783e-10
0
-3.9968e-12
0
-2.4869e-11
1.98952e-10
7.99361e-12
-1.66533e-10
1.65201e-10
1.64757e-10
-1.87406e-10
-1.60316e-10
1.77636e-11
-5.77316e-12
4.44089e-12
1.13243e-10
-8.88178e-13
-8.12683e-11
2.30926e-11
8.26006e-11
-3.10862e-11
-2.88658e-11
-5.63993e-11
-1.95399e-11
9.32587e-11
7.99361e-12
0
9.54792e-11
-8.88178e-13
-1.03473e-10
-2.66454e-11
9.14824e-11
-8.43769e-12
-4.75175e-11
1.24345e-11
-6.39488e-11
-1.11022e-11
1.13243e-10
9.68114e-11
-2.13163e-11
5.77316e-12
-8.12683e-11
-2.93099e-11
-8.88178e-13
9.32587e-12
9.54792e-11
-9.76996e-12
3.55271e-12
9.76996e-11
-2.30926e-11
-1.33227e-11
7.54952e-12
0
0
-7.4607e-11
2.04281e-11
-9.32587e-12
-6.03961e-11
1.02141e-11
6.66134e-11
1.11022e-11
-7.19425e-11
1.37668e-11
8.83738e-11
1.95399e-11
2.04281e-11
8.4821e-11
6.66134e-12
-8.4821e-11
3.10862e-12
1.02585e-10
-1.12355e-10
0
5.55112e-11
-8.21565e-11
-1.12799e-10
1.64313e-11
0
7.54952e-12
1.77636e-11
2.08722e-11
9.23706e-11
-6.66134e-12
-5.59552e-11
1.73195e-11
1.03917e-10
7.10543e-11
6.21725e-12
-7.10543e-11
-1.10134e-10
8.30447e-11
6.4837e-11
6.66134e-12
-6.4837e-11
-1.06581e-11
7.99361e-12
3.59712e-11
-2.26485e-11
2.22045e-12
1.83853e-10
-3.37508e-11
-1.98508e-10
0
2.9754e-11
4.44089e-12
-5.41789e-11
1.11022e-10
6.4837e-11
0
9.76996e-11
-2.22045e-12
2.22045e-12
-9.72555e-11
-2.66454e-12
9.99201e-11
1.65201e-10
-1.65201e-10
-1.75415e-10
1.60316e-10
1.78524e-10
-1.59428e-10
-1.65201e-10
-2.84217e-11
0
1.90958e-11
1.8785e-10
0
-1.8785e-10
0
1.98952e-10
1.84741e-10
-1.91847e-10
-6.66134e-12
2.66454e-12
-1.78524e-10
3.10862e-12
-4.44089e-11
-1.33227e-11
-3.10862e-11
1.46549e-11
1.64313e-11
-3.10862e-11
1.74971e-10
2.62013e-11
-1.91847e-10
1.87406e-10
3.28626e-11
7.10543e-12
-5.32907e-12
-1.64757e-10
1.59872e-10
-2.9754e-11
0
0
-1.49658e-10
-4.44089e-13
1.72751e-10
2.66454e-12
0
1.66533e-10
-1.33227e-12
-1.62537e-10
-1.66978e-10
-2.93099e-11
-4.44089e-12
1.98952e-10
3.55271e-11
8.88178e-13
-3.01981e-11
0
2.26485e-11
-1.98508e-10
1.69642e-10
1.9984e-10
-1.7053e-10
0
1.81188e-10
0
0
1.55431e-10
-1.63869e-10
-1.27454e-10
-8.88178e-13
-3.01981e-11
5.32907e-11
-2.93099e-11
2.22045e-12
4.44089e-12
-1.67866e-10
9.01501e-11
-3.37508e-11
-5.55112e-11
4.44089e-12
-2.88658e-11
1.93623e-10
-1.77636e-12
-8.88178e-13
-1.77636e-12
1.63869e-10
-1.61648e-10
-1.62981e-10
8.88178e-13
1.62537e-10
1.63425e-10
8.88178e-13
-5.77316e-12
2.22045e-12
0
-2.22045e-12
1.77636e-12
0
4.44089e-13
0
-1.63425e-10
-1.62093e-10
-1.27898e-10
-6.21725e-12
0
6.21725e-12
-3.10862e-12
0
0
0
1.63425e-10
1.60316e-10
7.54952e-12
8.88178e-13
-2.22045e-12
-4.44089e-13
0
0
-2.35367e-11
0
1.83853e-10
1.60316e-10
7.54952e-12
-6.21725e-12
-3.10862e-11
-2.57572e-11
1.93623e-10
3.10862e-12
4.44089e-13
-2.22045e-12
4.44089e-13
1.96287e-10
4.88498e-12
1.33227e-12
0
1.64313e-10
0
0
-1.74971e-10
0
1.75859e-10
1.33227e-12
-3.06422e-11
5.72875e-11
2.02061e-10
1.07914e-10
0
0
-1.95399e-11
0
2.04281e-11
1.33227e-12
-1.63869e-10
-1.64313e-11
0
1.33227e-11
1.68754e-10
0
-1.33227e-12
-4.88498e-12
4.44089e-13
1.73195e-10
-4.44089e-13
2.35367e-11
-3.10862e-12
1.52323e-10
-1.9984e-11
-1.56319e-10
2.39808e-11
-2.22045e-12
1.63425e-10
1.7053e-10
-1.96732e-10
-1.28786e-11
2.01617e-10
1.78524e-10
0
0
-4.44089e-13
0
1.33227e-12
1.33227e-12
-3.9968e-12
-4.44089e-13
6.21725e-12
4.44089e-13
0
0
-1.66533e-10
0
-1.77636e-12
-1.6831e-10
-1.27898e-10
-6.21725e-12
0
6.21725e-12
-3.10862e-12
0
0
0
1.63425e-10
1.60316e-10
-1.33227e-11
4.35207e-11
0
3.01981e-11
-2.26485e-11
0
2.22045e-12
-6.35048e-11
2.14495e-10
2.59348e-10
-1.13687e-10
-3.77476e-11
6.4837e-11
-1.15463e-11
4.92939e-11
0
-8.12683e-11
0
7.90479e-11
4.75175e-11
3.73035e-11
-2.93099e-11
0
2.93099e-11
-4.44089e-13
7.99361e-12
-3.55271e-11
0
3.77476e-11
-6.21725e-12
-3.81917e-11
1.15463e-11
-1.06581e-11
-1.15463e-11
4.92939e-11
0
-7.01661e-11
0
5.72875e-11
3.68594e-11
-2.93099e-11
1.42109e-11
0
-1.42109e-11
2.93099e-11
0
-6.66134e-12
2.93099e-11
1.73639e-10
1.66533e-10
2.84217e-11
-5.28466e-11
8.88178e-13
5.37348e-11
2.93099e-11
0
0
0
1.63425e-10
1.93179e-10
-2.35367e-11
-3.33067e-11
2.84217e-11
3.73035e-11
-7.14984e-11
4.44089e-13
3.41949e-11
0
1.98952e-10
1.62093e-10
-2.9754e-11
-7.28306e-11
0
4.35207e-11
2.93099e-11
0
0
0
1.33227e-12
3.06422e-11
-1.67866e-10
-1.803e-10
-1.33227e-12
7.54952e-12
0
0
-2.70894e-11
0
2.01172e-10
1.74083e-10
-1.96732e-10
3.9968e-12
3.37508e-11
1.64313e-10
0
-1.68754e-10
-1.9984e-11
0
1.83409e-10
1.63869e-10
0
-4.79616e-11
-4.88498e-11
9.68114e-11
0
-4.92939e-11
4.26326e-11
0
1.73195e-10
2.16271e-10
0
5.77316e-12
6.92779e-11
-7.06102e-11
-7.90479e-11
0
8.03801e-11
4.44089e-13
-7.99361e-12
6.30607e-11
6.70575e-11
4.35207e-11
-7.37188e-11
3.01981e-11
5.10703e-11
-7.4607e-11
3.10862e-12
1.02141e-11
2.03837e-10
2.47802e-10
0
9.41469e-11
0
-9.41469e-11
0
0
9.41469e-11
0
-2.62013e-11
6.70575e-11
0
4.92939e-11
0
-4.92939e-11
0
0
-2.35367e-11
4.9738e-11
7.01661e-11
-2.22045e-12
0
1.64313e-11
7.90479e-11
-9.54792e-11
-5.55112e-11
7.90479e-11
7.28306e-11
-8.88178e-13
-2.75335e-11
-1.19904e-11
-2.66454e-11
-9.59233e-11
4.92939e-11
5.63993e-11
-9.76996e-12
4.88498e-11
3.55271e-12
-5.90639e-11
-9.32587e-12
4.39648e-11
-2.35367e-11
1.5099e-11
7.81597e-11
-9.32587e-11
-5.55112e-11
7.90479e-11
6.57252e-11
-5.55112e-11
-2.22045e-11
4.44089e-11
0
1.87406e-10
-2.88658e-11
-1.5854e-10
0
-2.88658e-11
1.87406e-10
0
5.77316e-12
1.93179e-10
-2.44249e-11
-5.32907e-12
3.10862e-11
-2.57572e-11
0
7.63833e-11
1.63869e-10
-4.52971e-11
0
1.63425e-10
-2.17604e-11
-2.93099e-11
0
2.93099e-11
-4.44089e-13
7.99361e-12
1.19904e-11
4.44089e-13
1.28786e-11
1.77636e-11
-7.54952e-12
3.01981e-11
0
-2.26485e-11
-3.01981e-11
0
5.24025e-11
0
1.65201e-10
1.88294e-10
-5.15143e-11
-1.77636e-12
4.26326e-11
9.10383e-11
-1.06581e-11
0
-4.88498e-12
0
1.8785e-10
1.72307e-10
-2.44249e-11
1.03917e-10
-8.12683e-11
-2.26485e-11
8.12683e-11
-8.12683e-11
1.82077e-11
0
7.10543e-12
1.06581e-10
-3.55271e-12
-8.21565e-11
-8.30447e-11
5.90639e-11
4.44089e-11
-2.88658e-11
-4.44089e-13
-4.08562e-11
5.10703e-11
9.54792e-11
-5.77316e-12
5.9508e-11
2.93099e-11
1.46549e-11
-1.03473e-10
2.9754e-11
5.10703e-11
0
5.37348e-11
8.88178e-13
-3.15303e-11
-8.52651e-11
1.05693e-10
4.66294e-11
-1.06137e-10
-2.44249e-11
1.03917e-10
6.30607e-11
2.22045e-12
0
4.9738e-11
-3.95239e-11
-8.30447e-11
5.90639e-11
-1.02141e-11
-2.88658e-11
5.41789e-11
-4.08562e-11
5.10703e-11
9.54792e-11
-1.62093e-10
1.9007e-10
-1.77636e-12
-1.5854e-10
0
-1.77636e-12
1.62537e-10
0
2.22045e-12
1.64757e-10
-1.5854e-10
4.44089e-13
-1.33227e-12
-8.88178e-13
0
0
1.77636e-12
0
1.5854e-10
1.60316e-10
4.92939e-11
-4.79616e-11
-4.88498e-11
9.68114e-11
0
-4.92939e-11
-3.19744e-11
4.39648e-11
2.47802e-10
1.72307e-10
0
9.63674e-11
8.21565e-11
-9.59233e-11
-1.82077e-11
-4.44089e-13
3.24185e-11
0
-2.84217e-11
6.70575e-11
9.59233e-11
4.44089e-11
-2.9754e-11
5.9952e-11
-7.10543e-12
-2.93099e-11
-1.37668e-11
-6.35048e-11
2.03837e-10
2.47802e-10
-6.26166e-11
-1.24345e-11
0
-4.9738e-11
6.26166e-11
-4.44089e-13
-1.24345e-11
0
1.73195e-11
6.79456e-11
-8.88178e-12
-2.75335e-11
-5.55112e-11
2.70894e-11
0
0
3.24185e-11
0
3.06422e-11
6.26166e-11
7.90479e-11
6.30607e-11
-5.50671e-11
-6.39488e-11
0
0
6.30607e-11
8.88178e-13
5.37348e-11
1.18128e-10
1.73195e-11
-8.43769e-12
-5.41789e-11
1.28786e-11
4.9738e-11
-5.41789e-11
-4.92939e-11
0
3.81917e-11
3.73035e-11
-1.13243e-10
3.86358e-11
8.30447e-11
-1.14131e-10
2.93099e-11
8.30447e-11
-2.22045e-12
-4.44089e-13
-3.06422e-11
-3.9968e-12
1.72751e-10
1.63425e-10
-1.67422e-10
3.9968e-12
0
-1.67866e-10
1.63869e-10
0
4.88498e-12
1.69198e-10
-3.06422e-11
-1.07025e-10
3.37508e-11
1.0747e-10
0
-1.68754e-10
0
0
1.69642e-10
1.70086e-10
-8.4821e-11
-1.86517e-11
1.14575e-10
-3.10862e-11
-2.93099e-11
4.92939e-11
2.26485e-11
0
-8.88178e-12
-1.59872e-11
0
4.9738e-11
5.32907e-12
-5.32907e-12
-4.9738e-11
5.77316e-12
4.92939e-11
0
1.65645e-10
1.65201e-10
-3.10862e-11
1.59872e-11
1.02141e-11
8.43769e-12
7.10543e-11
-3.10862e-11
6.66134e-12
-6.35048e-11
1.79856e-10
2.59348e-10
4.44089e-13
1.33227e-12
3.10862e-11
-6.57252e-11
2.35367e-11
2.08722e-11
-9.81437e-11
0
9.28146e-11
2.84217e-11
4.39648e-11
-6.70575e-11
4.44089e-12
6.70575e-11
-9.50351e-11
0
9.63674e-11
0
1.65201e-10
1.70974e-10
2.57572e-11
-2.35367e-11
3.9968e-12
3.24185e-11
-2.22045e-11
0
9.76996e-12
0
1.78968e-10
1.70974e-10
-6.35048e-11
-4.17444e-11
4.79616e-11
-1.82077e-11
2.17604e-11
3.37508e-11
-1.04361e-10
1.42109e-11
1.07025e-10
2.4869e-11
6.39488e-11
-5.77316e-11
4.44089e-12
6.70575e-11
-2.22045e-11
0
-2.66454e-11
0
2.15383e-10
1.70974e-10
7.37188e-11
3.9968e-12
1.04805e-10
-3.9968e-12
-1.50102e-10
5.50671e-11
4.44089e-13
0
1.63425e-10
1.18128e-10
-3.10862e-11
-1.7808e-10
2.01617e-10
1.78524e-10
0
0
-4.44089e-13
0
1.33227e-12
1.33227e-12
2.93099e-11
4.52971e-11
-4.92939e-11
3.9968e-12
0
-4.92939e-11
4.92939e-11
4.39648e-11
1.54099e-10
1.60316e-10
0
6.88338e-11
-8.88178e-12
1.90958e-11
-7.99361e-11
-8.43769e-12
5.59552e-11
0
2.03393e-10
1.79412e-10
2.08722e-11
3.9968e-12
5.28466e-11
-1.06581e-11
6.66134e-12
-2.26485e-11
1.77636e-11
8.88178e-12