/*--------------------------------*- C++ -*----------------------------------*\
  =========                 |
  \\      /  F ield         | OpenFOAM: The Open Source CFD Toolbox
   \\    /   O peration     | Website:  https://openfoam.org
    \\  /    A nd           | Version:  10
     \\/     M anipulation  |
\*---------------------------------------------------------------------------*/
FoamFile
{
    format      ascii;
    class       volScalarField;
    location    "1";
    object      gradTy;
}
// * * * * * * * * * * * * * * * * * * * * * * * * * * * * * * * * * * * * * //

dimensions      [0 -1 0 1 0 0 0];

internalField   nonuniform List<scalar> 
46825
(
-2.98172e-13
0
0
2.21587e-11
1.03996e-12
-1.41138e-11
4.46156e-13
-1.89151e-11
1.49078e-13
7.45498e-13
1.8767e-11
1.18533e-14
2.43267e-11
4.05421e-11
5.76741e-14
-1.40588e-11
7.32036e-13
4.11425e-12
3.02266e-13
7.74353e-13
5.10333e-13
-1.8223e-13
4.81516e-13
-2.10397e-11
-1.43288e-12
-2.05671e-13
1.74917e-13
4.93635e-11
-2.06028e-13
-5.85833e-13
-3.77306e-11
-3.38221e-13
-2.38224e-11
-1.83748e-11
-4.89841e-14
1.84525e-13
-2.78375e-14
2.57603e-11
-4.84493e-13
3.15537e-13
1.85237e-11
-4.81572e-14
1.77793e-11
2.12441e-11
5.02848e-14
2.16217e-11
-6.12338e-15
-2.60027e-11
-4.09473e-14
-2.41753e-13
1.91467e-11
1.70456e-11
6.80087e-12
1.83638e-11
-6.37577e-13
1.05254e-12
2.38026e-13
-2.4956e-11
-1.08153e-13
-1.05111e-13
-1.79258e-11
2.31373e-15
-1.80633e-11
9.39638e-12
1.88215e-13
-2.20082e-11
6.86503e-14
-1.90604e-11
1.11633e-13
2.84099e-13
-6.28292e-13
-1.6623e-11
-2.41153e-11
-1.85521e-11
3.35358e-13
-7.91219e-13
-1.23557e-13
4.71144e-13
4.18071e-14
-3.83379e-13
-1.46552e-13
3.56492e-13
-4.55814e-14
-1.02668e-11
2.53838e-14
3.34605e-14
-4.04918e-13
1.89179e-11
4.474e-14
2.02029e-14
0
-1.49096e-13
1.68324e-11
-7.43695e-13
0
0
2.9749e-13
-1.04278e-12
0
-2.98252e-13
0
1.49346e-13
0
-2.28331e-11
1.71566e-11
0
-5.96944e-13
-1.73233e-11
0
-1.79059e-11
-9.18643e-15
-5.69856e-15
1.19718e-11
7.58987e-12
-6.17015e-12
-5.98328e-12
-2.61727e-13
-3.43081e-11
-1.70891e-13
-1.84665e-11
3.11807e-14
-3.7595e-13
-4.76218e-11
3.08592e-11
-2.49724e-11
-7.80785e-13
-9.43289e-13
1.24563e-11
1.01101e-13
-1.44286e-13
-2.21022e-13
1.51829e-13
2.50201e-12
-6.13006e-13
2.74277e-12
2.24128e-12
8.28101e-13
-2.39372e-13
1.00738e-12
7.02273e-14
-7.61812e-14
8.28662e-14
4.45733e-11
-2.15691e-13
4.21466e-11
4.14751e-11
6.12738e-13
1.64935e-13
-1.23927e-13
3.58761e-13
-1.65343e-14
1.74809e-11
-3.75381e-13
1.55397e-13
-4.29222e-11
-4.18489e-11
6.24391e-11
3.23969e-13
-1.05148e-12
-3.70002e-14
3.37674e-13
-5.16465e-13
-3.09901e-13
-6.82798e-13
-4.28076e-13
-2.47508e-13
-6.33223e-11
3.72516e-11
-2.9791e-11
1.97463e-13
-5.24886e-12
-1.72747e-11
-3.76833e-11
-4.24274e-12
-3.96861e-11
-1.05323e-12
-4.95599e-13
-3.55787e-11
2.532e-13
4.47284e-13
3.0193e-14
5.17091e-13
-1.08523e-12
8.22704e-13
1.2116e-11
5.79628e-12
-7.8533e-13
-9.20614e-12
2.99728e-11
-2.02667e-11
5.07349e-12
4.48054e-13
-4.47996e-13
1.49228e-13
4.47528e-13
-1.8349e-11
4.47715e-13
1.95643e-11
0
-2.0146e-11
-5.13122e-11
-1.49274e-13
-3.16199e-11
-1.19217e-12
2.47422e-11
1.34142e-12
-5.09633e-11
8.50169e-12
1.49293e-13
1.49191e-13
-2.27917e-11
4.10833e-13
-3.15084e-11
-3.64647e-11
-1.648e-11
-3.67872e-12
-3.90824e-11
-5.0052e-13
-2.06332e-13
2.47442e-13
4.86987e-11
2.29886e-13
-4.30751e-11
6.63547e-10
1.09394e-09
1.02671e-09
1.10202e-09
-9.15799e-11
4.48129e-13
2.34442e-11
-3.52157e-12
1.03367e-13
8.39653e-11
-2.80839e-07
-3.09485e-07
-3.15774e-07
-2.67264e-07
-2.00717e-08
-4.49415e-13
-2.98807e-11
-2.3484e-11
-9.16074e-14
-8.97409e-11
-9.33474e-09
1.26462e-07
1.34152e-07
1.02701e-07
-4.135e-09
-5.15834e-13
-2.35333e-11
-1.17308e-13
4.1409e-11
9.9926e-11
3.23513e-09
-3.01001e-08
-3.12479e-08
-2.55962e-08
1.26235e-09
1.99924e-12
2.99168e-11
1.63241e-13
-9.04889e-11
-4.40865e-11
5.17064e-08
-3.66552e-07
-3.80149e-07
-3.1341e-07
1.35119e-08
-1.87871e-12
1.75979e-11
-2.37841e-13
1.06123e-10
7.40346e-13
1.59942e-08
7.99497e-08
8.22853e-08
7.21716e-08
-2.13674e-10
1.2238e-12
5.13499e-13
5.83028e-14
-5.65465e-11
-6.3239e-12
3.6653e-11
6.54032e-13
-1.94135e-11
4.88848e-13
1.992e-12
-6.91671e-13
-1.71592e-11
-1.49171e-13
0
0
-1.45986e-11
-7.15224e-12
2.81628e-11
5.36318e-12
0
-7.61238e-12
-4.47561e-13
-3.55652e-11
2.83867e-11
-5.9072e-13
-2.18657e-11
-2.93044e-11
-4.49791e-11
-3.21312e-11
-9.74665e-12
4.90558e-12
-1.48854e-13
-1.28713e-13
6.6439e-11
6.78269e-11
1.50145e-08
9.60268e-09
9.47805e-09
9.96997e-09
9.47246e-09
-1.12703e-12
-2.16826e-11
3.80509e-11
-3.87688e-11
1.08805e-09
0.000129534
0.00013435
0.000135049
0.00013364
0.000130907
9.36633e-09
-1.4245e-13
3.45838e-13
-2.49873e-11
-5.02204e-07
-1.11264
-1.74949
-1.75898
-1.73549
0.24082
4.37382e-08
3.42323e-12
-2.18592e-11
-6.54449e-11
-5.23734e-09
-0.00854473
-0.028825
-0.030036
-0.0273833
-0.0241222
2.70669e-09
1.91341e-11
-9.37381e-13
2.77473e-11
9.74039e-09
0.000779856
0.00188161
0.00184901
0.0018432
-0.0261803
-4.41221e-10
1.84749e-11
1.87429e-11
2.67232e-11
1.51144e-08
0.0463919
0.0831645
0.0841277
0.0833583
-0.0293059
-9.43894e-09
-1.99802e-11
5.74607e-13
6.31694e-11
1.30969e-06
-0.0398363
1.23333
1.23931
1.21824
-0.0855411
-8.36231e-08
-1.28589e-13
-2.17622e-13
4.48543e-13
3.14556e-08
7.7254e-06
7.09423e-06
7.04147e-06
7.17487e-06
5.27432e-06
-4.12957e-11
1.26245e-12
-1.48808e-13
-3.28344e-11
1.37269e-11
1.26126e-11
3.06115e-11
2.76826e-11
1.56935e-11
2.37664e-11
5.64698e-12
4.46502e-13
-2.97237e-13
8.60712e-12
-7.35025e-12
-1.60778e-10
-1.94491e-10
-1.56584e-10
-1.50387e-10
1.80755e-11
-3.72547e-11
0
3.33379e-12
1.77909e-13
-1.31132e-09
-5.29734e-07
-8.34795e-07
-8.07432e-07
-8.74242e-07
6.19246e-08
-2.70478e-11
-1.85396e-11
3.46008e-13
6.95251e-11
-1.28341e-06
0.115875
-1.43318
-1.43698
-1.43085
0.00346713
2.65107e-08
-1.94091e-11
-2.66397e-12
6.73786e-09
0.0316443
1.49807e-05
1.96041e-11
-1.84184e-11
2.3987e-09
0.000858899
2.56598e-06
4.54272e-11
-4.29186e-14
-3.77774e-10
0.000146689
-2.76407e-07
-6.31887e-13
1.77551e-11
-5.65666e-09
-0.0014161
-8.19156e-06
-2.75737e-11
-1.73653e-11
5.49191e-10
0.00153916
3.72232e-06
-1.95116e-11
-1.06157e-12
-2.48727e-14
4.36014e-07
0.00151825
0.00184652
0.00185136
0.00182957
-9.18276e-05
6.99053e-10
1.07738e-11
1.61996e-11
8.90069e-13
-2.95273e-11
1.2321e-10
1.6623e-10
1.53656e-10
1.24809e-10
3.81969e-12
1.48379e-11
3.03247e-11
2.28944e-11
2.42162e-11
-1.45671e-11
-1.0928e-10
-1.50995e-10
-1.36396e-10
-1.0675e-10
9.11741e-12
6.09137e-12
-1.4871e-13
-1.67771e-13
2.39224e-11
-1.43236e-09
-4.26859e-07
-8.8462e-07
-8.42222e-07
-9.24771e-07
6.46358e-08
-7.46569e-13
-2.05399e-13
-2.34013e-11
3.77102e-11
-1.43133e-06
-1.21344
-1.49713
-1.50127
-1.49275
0.00470116
7.442e-08
-2.12327e-11
7.92426e-13
7.91711e-09
0.039563
3.20773e-05
2.65686e-11
6.46418e-13
3.3959e-09
0.00110786
2.86782e-06
4.24562e-11
-1.96591e-11
-4.0485e-10
0.000228364
-3.60068e-07
-4.33177e-11
-7.82151e-13
-7.70047e-09
-0.00196037
-1.06734e-05
-3.17775e-11
-1.30579e-11
7.74078e-10
0.00164645
4.19442e-06
1.75309e-11
4.67139e-13
-3.56756e-13
4.74872e-07
0.00155851
0.00198677
0.00199362
0.00195829
-9.83484e-05
9.04758e-10
2.90989e-11
3.22613e-11
8.16752e-12
-3.77824e-11
1.11517e-10
1.57727e-10
1.61045e-10
1.11226e-10
-4.46929e-11
-2.33186e-11
1.84384e-11
4.37323e-11
3.61309e-11
-3.15124e-11
-1.07306e-10
-1.37916e-10
-1.30681e-10
-7.98219e-11
5.88728e-12
2.39407e-11
-1.48796e-13
1.74262e-11
6.25964e-11
-1.54845e-09
-4.01698e-07
-8.38443e-07
-8.11674e-07
-8.98487e-07
6.51289e-08
2.15918e-11
-3.29272e-13
-3.05721e-12
3.21285e-11
-1.45427e-06
-1.21569
-1.5002
-1.50428
-1.49532
0.004731
7.58161e-08
-1.9745e-13
1.00836e-12
7.63605e-09
0.0397639
3.22169e-05
1.49409e-12
-2.20554e-11
3.39375e-09
0.00110879
2.69857e-06
1.7322e-13
-1.00772e-12
-4.92175e-10
7.80015e-05
-4.75926e-07
-3.86936e-13
-1.49782e-12
-7.65845e-09
-0.00211249
-1.10213e-05
-4.02577e-14
4.98624e-13
7.1344e-10
0.0016495
4.19445e-06
7.21634e-14
3.21e-13
-2.38677e-13
4.77109e-07
0.0015629
0.00199425
0.00200125
0.00196488
-9.8975e-05
9.26661e-10
-6.26092e-13
-2.97522e-13
-1.4863e-13
2.97227e-11
1.07524e-10
1.23004e-10
1.43072e-10
1.06361e-10
4.11996e-12
-6.09476e-12
2.97578e-13
2.97648e-13
-3.83821e-11
1.32604e-11
-1.08827e-10
-1.40323e-10
-1.58514e-10
-1.12693e-10
3.26928e-11
-2.76727e-11
1.48866e-13
-2.28516e-11
-3.78861e-11
1.11417e-10
-3.99109e-07
-8.4099e-07
-8.08155e-07
-8.96984e-07
6.48791e-08
-2.84848e-11
1.82588e-13
-1.79756e-13
1.28478e-11
-1.39041e-06
-1.21568
-1.50032
-1.50446
-1.49553
0.00478372
7.57492e-08
-6.2401e-14
5.49942e-12
7.78171e-09
0.0397062
3.21981e-05
7.95777e-13
-1.81952e-13
3.46546e-09
0.00110862
2.6523e-06
2.48264e-13
1.76719e-11
-5.01835e-10
7.80239e-05
-6.11995e-07
-4.08125e-13
-9.70443e-13
-7.69398e-09
-0.00211241
-1.51026e-05
-1.31785e-12
8.94855e-14
7.8307e-10
0.00165895
1.74745e-06
2.30202e-15
-2.35481e-13
2.71196e-13
4.73378e-07
0.00156342
0.00199512
0.00200208
0.00196568
-9.89672e-05
7.0707e-10
1.51103e-13
1.48836e-13
-1.85891e-11
-7.803e-12
9.37981e-11
1.18469e-10
1.48087e-10
1.15143e-10
1.00117e-11
6.84165e-12
-1.48862e-13
-2.39698e-11
2.53e-12
7.2236e-12
-1.4182e-10
-1.82938e-10
-1.41968e-10
-1.51355e-10
-4.42071e-13
1.48838e-13
0
-4.37524e-11
-4.10897e-13
8.47359e-11
-4.14491e-07
-8.64219e-07
-8.37423e-07
-9.20293e-07
6.49663e-08
-9.24117e-13
5.21811e-13
1.83267e-11
1.90418e-11
-1.37897e-06
-1.21521
-1.49933
-1.50337
-1.4945
0.00471994
7.57093e-08
2.46593e-13
2.0514e-11
7.98822e-09
0.039692
3.19364e-05
1.00214e-12
1.63009e-13
3.34982e-09
0.00110793
2.5843e-06
-1.82621e-11
-5.37763e-13
-4.35709e-10
7.81962e-05
-5.91982e-07
-3.11283e-11
-1.9105e-11
-7.66997e-09
-0.00211128
-1.20681e-05
1.78984e-11
6.93867e-14
7.75527e-10
0.00164999
9.20789e-06
3.1016e-11
-1.10706e-14
3.82484e-11
4.75379e-07
0.00156184
0.00199035
0.00199712
0.00196177
-9.84527e-05
2.52348e-11
-1.30834e-13
1.48893e-13
-5.35564e-12
3.624e-11
1.08012e-10
1.49473e-10
1.66837e-10
1.13972e-10
1.76787e-12
3.25848e-11
0
0
7.44302e-13
-1.06216e-11
-1.57428e-11
-2.97596e-11
-1.1032e-11
-8.30611e-12
-5.0145e-12
5.95533e-12
1.4896e-13
2.12154e-14
1.10269e-13
8.38313e-11
-2.43189e-07
-2.97102e-07
-2.62701e-07
-3.66024e-07
5.7078e-08
4.07022e-13
-3.2261e-13
1.75289e-11
4.97844e-11
-1.35736e-06
-1.19568
-1.45603
-1.45917
-1.45246
0.00364251
6.70585e-08
-6.43636e-13
4.47553e-13
4.00152e-09
0.0335541
2.26084e-05
1.94787e-13
-1.76973e-11
9.31736e-10
0.000865362
1.62289e-06
4.13808e-13
-2.19235e-11
-9.42846e-11
7.54325e-05
-2.84095e-07
2.39983e-13
4.02547e-13
-2.57695e-09
-0.00149378
-6.47928e-06
-4.4971e-13
2.10801e-11
5.53217e-10
0.00162233
3.20571e-06
-9.85201e-14
-2.04025e-13
1.10646e-12
4.58598e-07
0.00135294
0.00153273
0.00153563
0.00152778
-8.65158e-05
8.28439e-10
1.1075e-13
-1.4893e-13
2.97625e-13
1.10582e-11
-1.96691e-11
3.4832e-12
6.53107e-12
3.05967e-12
-3.59775e-11
-2.9768e-13
0
5.06405e-12
2.85829e-11
2.94997e-13
5.82963e-12
-6.96785e-12
6.09677e-12
-4.83824e-11
0
1.93559e-12
1.48968e-13
-1.87755e-11
3.54107e-11
3.43997e-11
1.87999e-09
1.84023e-09
1.85997e-09
1.80825e-09
4.68542e-10
-3.01098e-12
2.84313e-13
-2.27407e-11
-2.08361e-12
-3.25348e-07
-0.000608966
-0.000628269
-0.000629186
-0.000627634
-0.000566216
1.61456e-09
1.73575e-11
1.53393e-13
2.58267e-11
4.54428e-06
-1.84672e-08
-7.48448e-14
-3.45508e-13
-5.30151e-11
1.59892e-07
-1.36522e-09
-1.78095e-11
-1.91961e-11
3.68084e-11
-2.35034e-08
1.84227e-10
-3.97035e-13
6.99091e-13
-2.56474e-11
-2.32631e-07
4.87065e-09
1.03883e-13
1.90608e-11
1.35502e-11
-1.95576e-05
2.63936e-08
7.94448e-13
-3.15902e-13
8.38925e-12
5.44966e-08
-1.94586e-06
-2.04005e-06
-2.04602e-06
-2.01801e-06
-9.83858e-07
1.89702e-11
5.60191e-13
1.48953e-13
-1.48829e-12
2.50669e-12
-8.74238e-13
2.9028e-13
-1.58202e-11
-1.45704e-13
8.11002e-12
0
1.48964e-13
-4.46831e-13
0
0
-8.72492e-13
-3.12626e-11
-4.09601e-11
5.81675e-12
-1.98985e-11
1.0719e-11
1.19166e-12
1.56957e-14
2.98138e-13
-3.83179e-11
-2.92748e-13
-3.69131e-11
-6.15713e-12
-3.30602e-11
-2.75835e-11
2.44884e-11
1.01835e-12
6.48372e-13
-2.97817e-13
1.22397e-12
6.10962e-13
-5.11721e-13
2.26124e-13
4.68614e-11
-2.9332e-11
6.02678e-13
-2.10911e-11
2.48713e-11
4.15685e-11
8.97263e-11
-5.38296e-13
-6.40404e-13
-1.86271e-13
-7.58746e-11
-1.12023e-13
-2.62492e-13
2.06594e-11
-2.4518e-11
3.43031e-11
-1.63955e-14
-4.88573e-11
-2.05879e-11
2.69815e-11
2.92563e-13
-4.91446e-13
4.79814e-11
-1.85811e-11
-4.59729e-13
-4.20721e-11
-1.51763e-10
8.77553e-13
2.16011e-11
-2.68611e-11
4.21081e-11
-1.60734e-11
2.17587e-13
1.75528e-11
1.46546e-12
2.43334e-11
-7.31297e-14
5.27254e-11
1.87958e-11
1.48945e-13
6.99439e-12
-1.47362e-13
0
5.78865e-12
7.23573e-12
6.39722e-12
-7.36742e-13
-4.06311e-11
0
0
6.87639e-11
-6.18738e-12
-6.39194e-12
2.29822e-11
-1.76343e-11
-9.29778e-12
8.84017e-13
-1.04197e-11
2.97885e-13
-4.98436e-14
5.03906e-11
4.32877e-13
2.92689e-13
2.40129e-11
-1.81712e-11
0
4.30563e-11
2.15053e-11
5.85606e-14
-6.84649e-14
5.95729e-12
-8.99986e-11
-8.76351e-11
-2.34709e-11
3.01316e-11
2.17858e-11
-5.99154e-11
3.10117e-12
-3.46951e-13
-9.57478e-14
-2.92689e-13
0
1.5361e-11
-2.70807e-13
1.22089e-13
0
8.13894e-11
2.26394e-13
1.12064e-13
-6.7328e-13
0
-8.50771e-11
8.72101e-14
1.87149e-11
9.7605e-14
-5.55649e-12
-5.888e-13
4.89656e-11
-2.65785e-11
1.91193e-11
5.88468e-12
1.09826e-12
-4.9329e-11
-1.8816e-11
1.88538e-11
-4.18142e-12
0
1.06714e-11
2.1968e-13
1.35752e-11
8.09544e-12
-1.442e-11
0
2.6387e-11
2.97867e-13
-5.05934e-12
-2.75458e-11
0
2.28349e-11
1.51751e-11
-4.35757e-13
-4.41874e-12
-6.25009e-12
5.95761e-13
5.95711e-13
6.99509e-12
0
6.82635e-12
1.14158e-11
-5.7802e-12
-4.35738e-13
-1.82668e-11
-3.15537e-11
2.44248e-11
8.98754e-13
6.26811e-13
-4.26482e-13
-4.44955e-13
1.25944e-11
-2.93136e-13
-5.84976e-13
-2.52254e-11
-3.28576e-11
2.41648e-13
-3.00012e-13
-2.97885e-13
-8.26644e-11
-7.78686e-13
1.29334e-12
1.18199e-12
1.17784e-12
5.11308e-11
-3.01977e-13
-7.80375e-12
-1.97097e-11
-2.22964e-14
-4.06835e-12
1.70335e-13
-3.89583e-13
6.85779e-14
-3.83663e-11
-2.94955e-12
3.79719e-13
-1.64849e-11
1.94971e-11
3.78127e-11
-7.97836e-11
4.63153e-14
1.97152e-11
-3.23955e-13
5.84978e-13
1.76675e-12
1.93805e-12
-1.60551e-13
2.10505e-11
-8.82665e-13
-1.08927e-10
-1.17127e-12
-1.93495e-11
4.01778e-13
1.7623e-11
8.18602e-13
6.0318e-12
-4.39619e-13
5.06574e-12
-1.88971e-11
-7.02853e-12
-3.47829e-11
2.87424e-13
-2.12968e-11
-1.19037e-11
6.03835e-12
5.80911e-13
-7.94693e-12
-5.20161e-12
-2.26551e-11
2.13555e-11
1.78565e-12
4.46789e-13
2.82973e-12
4.46497e-13
1.47319e-13
8.28132e-12
-3.29604e-11
4.33689e-13
-1.58361e-11
5.8928e-12
4.46503e-12
-2.07024e-11
-2.36165e-11
2.80355e-12
-4.19483e-13
1.60924e-13
-3.27732e-11
1.33909e-11
2.866e-11
-1.35536e-11
1.70878e-13
-2.12086e-11
1.88107e-12
-2.08499e-12
7.38094e-11
6.6968e-13
1.13596e-11
-1.77289e-12
-5.65332e-11
4.95486e-11
0
-5.95468e-14
2.6426e-11
-7.53495e-13
5.81142e-13
-1.46485e-13
-1.25405e-13
2.5648e-11
1.45042e-13
2.35958e-12
-3.73912e-11
-2.01791e-13
-4.9169e-13
9.11411e-13
-1.77288e-11
3.58846e-11
3.79172e-13
-2.69742e-11
-1.16978e-12
0
-3.66993e-13
1.70968e-11
-1.94622e-11
6.56056e-11
2.73683e-12
-3.8433e-11
-1.81687e-11
-3.83622e-13
-6.49533e-11
-4.29868e-11
-1.24267e-11
1.15009e-11
2.08447e-11
-3.88063e-11
2.92088e-11
4.02271e-11
-1.69964e-11
1.9361e-11
-9.67198e-12
0
-2.93434e-11
-1.44546e-13
4.33641e-11
1.45267e-13
1.4729e-13
2.08327e-12
1.78722e-11
1.95112e-11
1.36936e-11
1.47385e-13
4.94606e-12
1.08618e-11
7.24109e-12
2.03656e-12
5.45315e-12
-1.48847e-13
-3.57479e-11
-1.83015e-11
-1.31156e-11
1.66914e-12
-1.05696e-12
-1.311e-11
2.93072e-13
1.8621e-12
-1.10494e-11
-1.25402e-11
-1.86218e-11
-1.87776e-11
-2.38193e-12
-3.51429e-12
-9.21145e-13
3.17723e-13
0
5.88424e-13
-2.53402e-11
0
1.69477e-11
1.87318e-11
9.11151e-13
-7.84104e-11
-4.57179e-13
-1.16331e-13
1.36889e-13
6.76015e-13
-7.48523e-11
-5.5083e-14
-3.7199e-13
1.84981e-11
0
0
9.49785e-14
1.376e-13
-2.77579e-13
-4.76863e-11
-7.94302e-11
2.27691e-15
2.49446e-13
3.46865e-13
4.67619e-11
1.20122e-12
2.03876e-12
-3.13747e-13
4.80082e-14
7.6055e-13
-1.15273e-12
-1.33576e-11
1.00949e-11
3.81109e-12
1.24593e-11
1.27986e-11
-1.78456e-13
-8.45575e-14
-1.86185e-11
5.20833e-11
6.92566e-12
-5.52719e-12
-3.48979e-11
2.75128e-12
-5.81793e-12
7.22028e-12
3.76511e-11
2.97897e-13
0
0
1.59324e-11
2.21611e-11
-6.39046e-12
-1.26353e-11
9.47562e-12
2.95014e-13
7.89142e-12
1.48985e-13
1.91923e-13
-9.29157e-13
4.20894e-13
2.91774e-11
-1.26661e-12
-3.86199e-12
6.76805e-13
-3.27684e-13
3.83854e-11
1.42462e-13
1.58409e-14
8.92868e-13
-1.3221e-12
4.58249e-11
4.04976e-11
2.36659e-12
-3.42913e-11
-2.95144e-11
-3.88353e-11
-4.63744e-14
1.03483e-13
-7.92964e-13
8.03259e-11
2.80928e-13
-2.10529e-13
-2.88305e-13
4.90771e-11
-6.39307e-13
-7.41385e-13
1.21676e-13
-8.22548e-15
-4.84091e-11
0
-3.53982e-11
7.23272e-15
-3.26571e-13
-4.18674e-14
-6.74372e-11
3.60527e-11
-1.2698e-13
-7.1739e-14
2.86766e-13
-2.92666e-12
1.02027e-11
-1.77072e-11
9.75346e-14
5.31953e-12
6.03348e-13
-1.8262e-12
2.46883e-11
3.01949e-11
-3.69266e-11
-3.92288e-11
-9.80016e-12
-6.25675e-13
-1.4898e-13
-1.042e-12
1.4749e-13
0
-1.45213e-13
0
3.9791e-11
2.86099e-11
0
1.75803e-11
1.80248e-11
0
8.11499e-12
5.82853e-13
0
0
-6.9921e-12
-8.40787e-12
6.55258e-12
1.04302e-11
-8.9229e-12
2.32988e-13
4.70599e-11
-5.60108e-11
-4.64689e-11
5.26573e-11
4.36233e-11
5.01865e-14
-1.53831e-11
3.38188e-13
-1.77813e-11
0
-1.36258e-10
7.43415e-11
8.848e-11
-5.66793e-12
2.26179e-11
-4.4338e-11
-1.34476e-12
-2.8344e-11
9.47403e-12
7.80204e-13
-1.3981e-13
1.91593e-12
-1.48365e-13
-5.6658e-15
-2.92675e-12
-1.12749e-11
-4.60514e-13
1.80241e-11
-4.03703e-14
5.88307e-13
1.35642e-12
-5.6757e-11
-1.89769e-11
-3.81224e-14
1.48784e-12
-9.12897e-11
6.80523e-11
-2.40111e-13
5.38725e-14
-1.49765e-13
-1.05827e-12
-1.18557e-11
1.8787e-11
4.43474e-13
-3.90184e-15
-5.44048e-11
1.38587e-12
2.70499e-11
1.13702e-11
-2.2027e-13
1.33274e-11
6.51359e-13
1.53344e-13
4.47002e-13
-4.98765e-11
5.30912e-12
6.84554e-12
0
0
8.73845e-12
-8.99526e-12
-4.12404e-11
4.47002e-13
0
7.14673e-12
6.93099e-12
8.43636e-12
2.89397e-13
-5.78735e-13
6.97857e-12
1.03179e-12
-8.93382e-13
-2.48818e-11
-5.15845e-14
2.98173e-13
2.51962e-13
-4.40106e-11
-8.78508e-13
-3.78084e-11
-5.03087e-11
5.39971e-11
-2.98717e-13
-1.92827e-11
3.22345e-14
1.93606e-11
-6.83869e-14
5.93798e-11
1.23641e-10
9.08234e-11
6.526e-11
-4.74989e-12
3.64139e-12
1.59691e-12
-5.82803e-13
-1.76547e-11
-1.09466e-10
-2.59962e-11
1.88028e-11
-1.10122e-13
-1.17123e-12
0
1.02308e-13
4.2323e-12
6.69511e-13
3.80996e-11
0
-1.94104e-13
-3.83631e-12
3.39584e-13
-3.80036e-11
-5.87926e-13
-6.26176e-14
1.93233e-11
-2.15275e-11
2.94202e-13
8.23446e-11
-5.48588e-13
1.75403e-11
2.309e-11
4.89106e-11
-2.08776e-11
1.52488e-12
-2.78729e-11
-3.51065e-11
2.98017e-11
4.03161e-11
5.55556e-13
2.24806e-11
4.42517e-11
1.75656e-11
3.38926e-12
1.91877e-11
1.4466e-13
7.233e-13
6.83186e-12
-2.38712e-11
1.63745e-12
8.49299e-12
-5.95845e-13
4.31782e-12
-2.77192e-11
0
-1.44589e-13
-1.44574e-13
-8.86358e-12
-2.94722e-13
-8.33816e-12
0
2.10372e-12
1.8872e-11
-2.80179e-11
4.21602e-11
-3.08738e-13
-3.55753e-13
1.43826e-13
-4.32639e-11
6.0512e-11
-9.23081e-13
8.19504e-13
-8.8166e-11
1.22764e-12
-1.88377e-11
-1.16772e-10
3.0727e-11
-1.23658e-11
6.17928e-11
-4.318e-11
2.37607e-11
-2.35364e-12
4.70221e-11
-4.0583e-12
1.16598e-12
1.31651e-12
-1.13496e-13
-4.41794e-13
0
-6.60009e-13
-2.37733e-11
2.78101e-14
-5.18114e-14
1.06361e-11
5.28734e-13
-5.59377e-12
-6.81067e-14
-3.2345e-13
0
-6.07473e-13
-9.25143e-14
-1.07924e-13
5.88444e-13
-1.88136e-12
-1.18021e-12
5.33872e-12
1.97739e-14
-2.87987e-11
-5.3073e-11
-1.30817e-11
-1.02554e-12
-5.43099e-12
-1.09415e-11
-7.3207e-13
-4.8775e-13
4.12129e-13
0
-7.29417e-12
2.372e-11
-3.31242e-11
-6.79386e-12
-4.3364e-12
-7.11859e-12
-3.75679e-11
-2.60501e-11
0
0
-5.21273e-12
-8.55431e-12
2.93801e-11
-1.83728e-11
2.34337e-11
5.45155e-11
-1.09089e-11
5.95772e-13
2.23586e-12
3.18038e-13
1.13159e-12
5.17328e-11
2.92162e-11
-3.80116e-11
3.57717e-11
5.43864e-11
1.77791e-13
-1.90153e-11
-3.82806e-11
3.05295e-12
-8.93624e-13
-4.62215e-11
4.43846e-13
2.53628e-11
0
0
2.33303e-11
1.96293e-11
-2.20882e-11
-5.52248e-13
-1.52555e-13
1.44952e-11
-3.8937e-11
1.87121e-11
-2.68388e-12
-6.4169e-13
3.00815e-11
3.85699e-11
4.50292e-13
4.28127e-13
1.23328e-12
0
-3.45414e-11
5.38173e-14
-3.36157e-13
-1.38626e-12
0
3.50543e-11
-1.86542e-11
-3.23456e-11
0
-9.09218e-13
-2.92777e-13
-1.88879e-13
1.71809e-13
1.57913e-13
1.2174e-11
-1.57708e-11
-4.39568e-13
-3.22972e-11
-7.63764e-11
1.62522e-11
-4.39296e-13
1.8626e-11
3.23452e-11
-1.22106e-11
-1.47386e-13
1.45353e-13
-1.44632e-13
5.78523e-12
8.13967e-12
7.22166e-12
6.7008e-12
1.49064e-13
0
-7.45265e-13
1.22571e-11
3.87763e-11
3.06126e-11
-1.4507e-13
-1.32604e-11
2.39161e-11
5.44088e-11
2.14792e-11
-2.51538e-11
4.16139e-11
2.38558e-14
2.9948e-11
7.33449e-11
1.65207e-12
-4.78393e-11
2.4292e-11
3.99621e-11
2.15953e-11
1.72618e-11
-4.28808e-11
-3.58591e-13
-1.00288e-12
-7.3506e-11
-9.18257e-13
6.13873e-11
1.58398e-12
-4.49717e-11
-1.7583e-11
4.87838e-11
-1.39885e-13
3.47856e-12
4.33833e-11
2.21973e-14
-2.87063e-13
9.34899e-13
1.17918e-12
-3.09753e-13
1.79336e-11
-2.33029e-11
-3.52082e-13
1.75485e-10
-1.76822e-14
3.70033e-13
-3.56173e-11
-2.94245e-13
3.31117e-13
-2.16329e-13
-1.53407e-13
8.50538e-14
8.82672e-13
3.05541e-12
-6.17117e-14
-3.90429e-13
-3.54005e-12
-4.3112e-11
-3.31952e-11
3.5653e-11
3.65854e-13
-1.39278e-12
-2.91481e-13
-2.26798e-12
2.334e-13
-1.46378e-12
-2.16283e-11
4.18808e-11
1.49079e-11
3.99222e-11
0
-2.59645e-11
2.8412e-11
5.31359e-12
-6.70687e-12
-1.6409e-12
0
5.97099e-13
-2.07518e-12
-6.31371e-12
5.85517e-13
0
1.46796e-13
-2.96408e-11
-3.06034e-11
-1.77641e-11
-3.22576e-11
-1.58757e-11
-7.11429e-12
1.12559e-11
1.8408e-13
5.38032e-13
5.05292e-11
-8.12038e-11
-7.12436e-11
6.3512e-13
-9.25855e-13
-2.98124e-13
1.18588e-10
-1.62446e-12
3.38376e-11
1.45265e-12
-6.64858e-11
9.27997e-11
4.70489e-11
1.83064e-11
1.47965e-11
-3.95817e-11
0
-4.07178e-11
3.79852e-14
-8.02537e-14
-6.72831e-13
3.37253e-12
4.09462e-11
2.08735e-13
-3.81785e-12
4.50727e-11
-5.82629e-13
3.93394e-13
-2.50151e-14
-2.69115e-11
-6.62542e-12
4.64463e-13
-3.64223e-11
1.21e-13
3.91098e-12
2.65136e-12
-9.29149e-13
3.85003e-11
5.64507e-15
2.68376e-11
-7.6902e-13
7.21681e-12
-1.48707e-11
-4.01039e-11
-6.07259e-12
3.20278e-12
-8.7655e-13
-3.53382e-11
-1.17853e-13
1.73163e-11
0
0
-1.54119e-11
5.85444e-13
1.46363e-13
-1.46785e-13
-2.28204e-11
-1.56738e-11
1.49303e-13
-1.93976e-11
-1.52308e-11
-1.3396e-12
2.96481e-13
1.48086e-13
-1.48081e-13
-6.07748e-12
-5.95344e-13
0
1.49223e-13
-1.48567e-13
1.31147e-11
-1.34028e-12
3.53124e-11
4.5789e-14
9.18879e-13
-1.10332e-14
-6.25874e-14
-4.76049e-11
8.14836e-14
1.9773e-11
-3.67503e-11
2.23446e-12
-6.76952e-11
1.17496e-10
-4.68869e-11
4.86161e-11
2.43602e-11
6.36117e-11
-1.49964e-13
6.99915e-13
3.77603e-11
2.28617e-12
2.00716e-12
-2.76443e-13
-4.00461e-13
-5.74819e-11
1.47577e-12
-3.66663e-11
7.84713e-14
-6.51675e-13
5.67345e-11
-1.4467e-13
1.39498e-12
6.22441e-14
-2.43261e-11
3.85727e-13
-2.69282e-12
-1.39733e-12
-2.27226e-13
2.24415e-13
-5.92984e-13
-8.6889e-11
7.38953e-13
1.76697e-11
2.15006e-11
1.12131e-12
3.7082e-11
-1.77857e-11
1.76094e-11
-1.91948e-13
-2.89263e-12
-1.38863e-11
1.92876e-13
-2.78873e-13
-2.686e-12
-4.25484e-11
7.14244e-12
-2.51958e-12
0
-1.48084e-13
-6.22542e-12
7.44113e-12
0
-1.74632e-11
1.78653e-11
8.93367e-13
-5.9451e-13
-1.03854e-12
-6.52543e-12
4.44918e-13
8.60475e-12
-5.51373e-11
-2.97762e-13
-2.97756e-13
1.79921e-11
4.21434e-13
-3.59193e-12
-1.54854e-12
1.28167e-11
4.14033e-11
-3.6409e-11
1.7624e-12
-3.4963e-11
-3.43175e-13
1.70146e-11
0
-4.21959e-11
1.90603e-11
5.56962e-12
-5.60758e-11
1.79495e-11
-4.52552e-11
-1.18878e-11
4.20603e-13
1.81453e-11
0
4.77504e-11
-1.2667e-11
-1.0369e-12
-2.0285e-11
1.62602e-12
1.81123e-12
7.18596e-11
1.96174e-13
-1.75442e-11
1.18708e-12
1.49711e-11
1.42102e-12
1.44e-12
-4.74921e-11
9.34308e-13
1.01035e-11
-2.43128e-11
1.02734e-13
-1.78745e-11
-1.18756e-12
1.21826e-12
5.30847e-11
-1.02572e-12
9.05942e-12
-1.87869e-12
-2.33843e-11
-7.35654e-13
-2.51566e-13
1.50047e-13
-2.96549e-13
1.11687e-12
-5.3709e-11
8.53459e-13
3.40822e-11
4.13652e-13
7.68081e-11
-5.64729e-11
-4.03598e-13
3.17981e-11
-1.34249e-12
-4.97008e-11
2.87397e-11
-3.0679e-11
1.1074e-12
-7.8943e-13
1.57205e-10
5.69725e-11
1.07746e-13
-4.62099e-13
1.01616e-11
-4.31781e-13
2.81856e-13
4.5317e-11
-5.74976e-11
3.76098e-11
-3.91587e-11
7.56001e-15
-6.78482e-13
-3.17097e-11
-7.1453e-12
9.06298e-12
1.48327e-13
2.77298e-11
-2.96592e-13
2.58123e-11
5.94417e-13
0
-5.95625e-13
5.93864e-13
2.03283e-11
-1.48185e-13
-1.93919e-11
-2.91538e-11
0
-4.95881e-11
-1.85224e-11
3.85782e-12
-5.34476e-12
4.81185e-13
8.53902e-14
7.81215e-12
-5.90094e-13
1.02187e-11
-6.23461e-12
-1.41994e-11
-1.07098e-11
-2.05859e-11
1.04329e-13
3.02717e-14
-2.03834e-11
8.55635e-12
2.5675e-11
3.93618e-11
9.93094e-13
3.42788e-11
-3.6288e-13
-3.06122e-11
4.95915e-12
1.51131e-13
1.16436e-11
-2.34945e-12
8.80464e-13
-6.20691e-13
-1.33694e-12
7.981e-13
1.5297e-13
7.52314e-12
1.39477e-14
-6.28771e-14
1.80757e-11
-7.34971e-12
-2.95359e-13
2.73694e-11
-5.20021e-12
-1.49412e-11
1.87825e-13
-7.67892e-12
-1.88695e-11
2.06121e-11
8.43266e-12
1.47052e-12
0
6.30013e-12
1.33362e-13
3.21306e-13
4.46865e-11
-2.81153e-11
-9.86301e-15
-3.24933e-13
-8.58612e-13
-2.85036e-11
2.94651e-13
-2.78131e-11
-6.97107e-12
-3.68614e-14
-4.47315e-11
7.58927e-12
1.18928e-12
-2.03607e-11
-2.06804e-11
2.90249e-11
-3.37013e-11
-3.27985e-11
1.2549e-11
-7.73914e-13
2.02789e-12
2.70996e-11
5.26404e-14
1.22364e-13
-1.67899e-11
-3.90905e-11
5.20802e-12
3.01761e-11
2.2504e-12
1.84409e-13
6.20436e-12
-3.03889e-13
1.75411e-11
-1.48459e-13
2.96745e-13
1.3043e-11
0
2.07145e-11
4.43896e-13
-7.4002e-13
-2.04465e-11
0
0
-1.70434e-11
2.25157e-11
1.03614e-12
-1.47941e-13
0
-9.17102e-12
-1.18353e-12
1.65779e-11
0
0
-1.6496e-11
8.94309e-13
-1.93653e-11
-3.49488e-13
8.30587e-14
-8.92144e-12
-6.34885e-15
3.99581e-11
2.32237e-11
2.35391e-12
1.74247e-11
5.96398e-12
-1.59585e-13
-4.83156e-13
-3.43486e-12
1.75669e-13
1.03763e-12
2.05071e-11
2.59774e-13
1.66406e-13
1.71738e-11
-7.16182e-13
4.76767e-11
1.3189e-13
-9.6874e-14
-5.85536e-14
-1.74161e-13
-9.82919e-13
-2.44259e-11
-4.96096e-12
1.19052e-13
-5.05985e-11
-1.36854e-13
1.39747e-13
3.63174e-12
1.91222e-14
7.60959e-14
-2.14169e-11
9.89314e-14
-4.09776e-13
2.50218e-11
4.62153e-13
-2.86102e-11
1.79256e-11
-2.92487e-13
-1.99362e-13
6.65012e-13
-4.14726e-11
8.79805e-13
2.94474e-12
2.59343e-13
2.22897e-11
1.63967e-13
1.70679e-11
-3.75713e-13
-1.9536e-11
1.00864e-13
1.0777e-12
1.3941e-13
-1.67352e-11
-2.47749e-11
-3.9449e-13
2.44482e-13
-1.76686e-11
1.0301e-13
9.72706e-14
2.01028e-11
1.9104e-11
-5.01998e-13
3.21448e-13
-1.9565e-11
-2.38294e-11
-3.72212e-13
-1.72221e-11
8.58342e-14
1.90825e-11
-9.11919e-14
-1.1453e-13
-5.09729e-14
1.66646e-11
-1.88209e-11
-2.3995e-11
0
2.95826e-13
-2.95764e-13
-4.43633e-13
-2.05585e-11
1.47991e-13
1.48111e-13
1.482e-13
2.81307e-11
2.69384e-11
-4.43868e-13
2.17435e-11
-7.39513e-12
-5.916e-13
0
2.95897e-13
-1.8649e-11
1.67298e-11
5.61534e-13
-9.95962e-14
-5.65023e-14
2.18627e-11
-7.50655e-12
-9.13914e-14
-2.54453e-14
-1.18156e-13
-1.92552e-11
1.79791e-11
-2.81351e-11
-1.73862e-11
1.06878e-12
-4.17138e-14
-3.72776e-13
4.45382e-13
4.89255e-14
-5.92986e-13
-6.42324e-13
-1.66317e-11
-6.0524e-13
1.18567e-13
1.21241e-14
-4.26668e-14
8.56719e-14
-1.64626e-11
-2.12926e-14
1.44624e-13
7.71734e-14
-2.32349e-11
-5.97316e-13
-6.75062e-12
-1.99631e-11
3.86099e-14
6.61987e-13
-1.759e-11
-7.51756e-14
-3.40379e-13
-1.33428e-13
-1.5539e-13
1.77646e-11
-1.37948e-13
-5.09003e-13
-3.64691e-13
2.76372e-13
1.63978e-11
2.07927e-11
1.78415e-11
-1.96277e-11
5.03948e-12
6.31834e-13
-2.80685e-12
1.85483e-11
-1.03502e-13
-5.51712e-14
1.78347e-11
-1.47925e-13
6.63797e-13
1.37532e-13
3.20039e-13
-1.79185e-11
2.53126e-13
5.33513e-13
3.68678e-14
-1.93885e-11
5.23838e-14
-2.01762e-11
-1.79834e-11
1.92783e-11
-1.76623e-13
1.70442e-12
1.02587e-11
-1.71166e-11
3.57253e-15
8.85412e-13
2.38578e-11
1.80766e-11
-2.14201e-13
-2.82533e-14
-2.26493e-13
1.33241e-12
1.0064e-11
-1.74562e-11
5.9153e-13
1.99613e-11
2.38052e-11
1.75971e-11
1.47923e-13
-1.47988e-13
0
4.4393e-13
0
-7.1004e-12
2.95805e-13
0
1.84866e-11
-7.39494e-13
-2.47023e-11
1.47947e-13
0
2.07132e-11
5.55231e-13
-7.28928e-12
-6.69148e-13
-3.32655e-13
1.85557e-11
-3.35816e-13
-4.7131e-11
-4.45224e-14
1.76646e-13
1.3323e-13
1.95589e-13
2.45028e-11
2.35238e-13
9.35299e-13
-4.73679e-14
-7.40017e-15
-5.01282e-13
5.61772e-14
2.54634e-14
-2.03821e-11
-1.01444e-12
-1.66732e-13
5.82591e-13
6.27071e-13
2.04154e-11
-1.42534e-13
2.19978e-11
-2.54495e-11
-2.28699e-11
-1.20668e-11
2.44375e-13
-4.24155e-11
-3.18823e-13
-9.35203e-13
3.42194e-13
4.30849e-13
-4.55448e-14
-9.23594e-14
-1.26768e-13
2.05356e-11
3.67536e-13
-2.32366e-11
7.04214e-16
-3.42932e-13
-2.02115e-11
-9.93853e-14
1.74266e-13
1.32867e-12
2.26797e-11
1.20301e-11
-1.17005e-13
-6.93861e-12
-2.16692e-11
-4.04492e-13
-6.60974e-13
-9.80021e-14
2.13981e-13
-4.15316e-13
1.09383e-13
-1.4393e-12
-1.84601e-13
2.29719e-11
3.60619e-13
-5.24107e-14
-1.85091e-13
5.03814e-14
-2.24688e-11
2.39779e-11
0
-1.81394e-13
1.14084e-13
2.47289e-11
2.16435e-11
1.86409e-13
1.34444e-14
6.75299e-14
-2.17999e-13
5.91572e-13
-1.88109e-13
-1.89401e-11
-1.4794e-13
1.47902e-13
1.47874e-13
1.4786e-13
-4.43571e-13
2.95733e-13
2.26273e-11
0
-2.95913e-13
-5.91721e-13
1.89333e-11
0
-2.07047e-12
0
0
1.47884e-13
-1.47893e-13
-1.47911e-13
0
-5.91666e-13
3.71242e-11
1.47891e-13
0
2.39572e-11
5.91526e-13
2.15902e-11
-1.3309e-12
1.47892e-13
2.27772e-11
0
5.9156e-13
-1.84855e-11
2.07045e-12
1.47898e-13
7.39469e-13
1.47879e-13
-2.14411e-11
1.183e-11
0
0
-1.80417e-11
0
0
-2.45559e-11
-4.43762e-13
-2.15924e-11
8.87206e-13
1.47861e-13
-2.27716e-11
0
-2.95763e-13
1.8487e-11
-3.84607e-12
-1.47952e-13
-4.43834e-13
1.77489e-12
4.03687e-11
-1.18284e-11
0
2.95759e-13
-7.39385e-13
-2.51416e-11
-1.4792e-12
-2.07121e-11
1.47937e-13
2.24808e-11
1.47863e-13
-1.47849e-13
1.47854e-13
1.47881e-13
-1.92234e-11
-1.96674e-11
1.03524e-12
0
-1.47898e-13
-1.47871e-12
-1.96639e-11
0
0
0
-1.62666e-12
2.5433e-11
1.47864e-12
2.20321e-11
-1.47861e-13
-8.87078e-13
0
2.63176e-11
2.07017e-11
-4.43717e-13
1.98171e-11
1.96669e-11