/*--------------------------------*- C++ -*----------------------------------*\
  =========                 |
  \\      /  F ield         | OpenFOAM: The Open Source CFD Toolbox
   \\    /   O peration     | Website:  https://openfoam.org
    \\  /    A nd           | Version:  10
     \\/     M anipulation  |
\*---------------------------------------------------------------------------*/
FoamFile
{
    format      ascii;
    class       volScalarField;
    location    "1";
    object      gradTx;
}
// * * * * * * * * * * * * * * * * * * * * * * * * * * * * * * * * * * * * * //

dimensions      [0 -1 0 1 0 0 0];

internalField   nonuniform List<scalar> 
46825
(
1.49086e-13
-1.32471e-13
-2.22771e-11
-2.19298e-14
3.64646e-11
-7.10549e-13
-1.85834e-11
5.92551e-13
4.13953e-12
-4.47299e-13
2.98106e-13
1.32386e-13
1.79923e-13
1.07143e-12
8.00228e-14
-1.1225e-12
-2.31728e-11
3.9497e-13
2.39595e-11
2.98125e-13
-1.89109e-11
5.57135e-12
1.82059e-11
-2.41653e-11
-1.81277e-11
-9.99948e-14
-4.92741e-13
4.8239e-13
7.20227e-13
-1.48912e-13
-1.48691e-13
1.4107e-13
-2.11643e-11
-5.34257e-13
2.10191e-11
3.145e-13
2.57511e-11
-3.73257e-13
-2.57458e-11
2.97386e-13
1.84203e-11
1.88868e-11
5.60231e-13
-3.76315e-13
9.08149e-14
-3.45672e-13
2.4852e-11
-4.45452e-13
-2.45638e-11
4.45643e-13
-1.81253e-11
-2.33041e-13
4.41021e-13
-1.78866e-11
2.15472e-11
-9.12389e-14
-2.15927e-11
-1.25597e-13
-1.53433e-13
2.97125e-13
1.62123e-11
6.56346e-12
1.96255e-12
-7.75238e-12
-1.73242e-11
5.91091e-13
-8.80075e-13
1.18974e-13
3.76544e-13
2.97462e-13
-4.46889e-13
-1.42844e-13
9.64138e-12
-1.55733e-13
-9.5956e-12
2.53793e-13
-1.93097e-11
2.07817e-13
1.9472e-11
0
1.491e-13
-1.69179e-11
-4.7904e-14
1.66075e-11
2.18935e-13
-2.3855e-13
6.50762e-13
2.97302e-13
-5.81075e-13
-1.49101e-13
1.49119e-13
-1.23762e-15
-9.05901e-13
-6.98666e-14
5.94183e-13
-1.82756e-13
-4.87199e-13
-3.49144e-14
5.29112e-13
1.49126e-13
-2.98394e-13
-8.98411e-14
1.64266e-13
4.15062e-13
3.27805e-15
-1.67543e-14
1.73344e-11
-1.82007e-13
7.37021e-13
1.80551e-11
0
-5.95427e-14
-2.27492e-11
1.75126e-11
2.28434e-11
-1.78383e-11
4.87635e-14
4.29177e-13
7.39383e-14
1.49332e-13
0
4.48872e-12
3.61267e-11
-3.65496e-11
8.90881e-13
7.07442e-14
-4.99388e-13
-6.39782e-11
1.07357e-11
-1.49297e-13
-1.49194e-13
-7.7755e-12
1.14907e-12
4.33359e-11
-9.65645e-12
-3.4564e-11
-2.912e-13
4.78744e-13
-2.24291e-13
0
2.98316e-13
7.88936e-12
-3.90286e-11
3.80252e-11
6.3559e-13
-4.42097e-11
4.48785e-11
-3.88514e-11
6.61802e-12
-1.04409e-12
-1.49173e-13
-4.00122e-12
8.32999e-12
-8.0761e-13
-5.2035e-13
4.98321e-13
-8.10013e-14
3.75483e-13
4.11329e-13
2.98332e-13
1.76098e-11
-5.72165e-12
-2.26876e-11
7.37421e-13
5.06121e-11
-5.05619e-11
-1.35565e-13
3.08824e-12
-7.47898e-13
0
0
7.40964e-12
-1.22933e-11
-1.62154e-12
2.05763e-12
-3.09958e-13
-1.72083e-13
-4.62422e-15
-1.18627e-11
3.03155e-11
5.07825e-12
5.37253e-12
-1.08948e-15
-1.40196e-12
1.83886e-11
1.09992e-12
-3.75474e-11
-6.88896e-14
1.97874e-11
4.48082e-13
2.98441e-13
-5.36732e-14
-4.59298e-13
-3.27603e-13
-7.08003e-14
7.93898e-13
2.03454e-13
-2.15123e-13
-1.987e-11
-1.9549e-11
-2.61036e-11
-2.49488e-12
5.03164e-13
-2.36225e-11
-7.35385e-13
2.9105e-11
4.93322e-14
-2.93895e-11
-8.88615e-14
1.49191e-13
3.34245e-11
3.38148e-11
-2.22343e-13
1.93054e-13
2.95362e-13
-3.32432e-13
-3.98789e-13
3.69841e-11
-3.63751e-11
-1.49247e-13
-4.47221e-12
-4.56389e-12
1.1346e-12
-1.97474e-12
-3.75764e-13
3.12969e-13
-1.39907e-13
-3.57101e-11
3.64533e-11
2.98189e-13
-3.97722e-11
-3.19549e-11
6.20432e-10
-2.80871e-07
-9.39999e-09
2.22397e-09
2.54841e-08
4.77325e-08
6.70569e-11
5.00541e-11
1.49007e-13
6.94302e-11
9.99828e-10
-3.0936e-07
1.26884e-07
-2.85566e-08
-3.6278e-07
8.04921e-08
-2.05625e-13
-4.00833e-11
1.29642e-11
6.09102e-14
1.09207e-09
-3.16076e-07
1.35281e-07
-3.06868e-08
-3.80028e-07
8.23778e-08
-6.24762e-14
-2.98014e-13
-2.35392e-11
1.4916e-11
1.00534e-09
-2.76068e-07
1.10652e-07
-2.46077e-08
-3.13266e-07
7.21274e-08
-4.26925e-13
-7.74648e-12
9.39415e-12
-4.05359e-11
8.88699e-11
-6.82564e-09
-5.0551e-09
1.16389e-09
1.35244e-08
-2.39607e-10
-1.92613e-13
2.34097e-11
2.98511e-13
2.78577e-13
-5.49757e-11
5.54443e-11
-1.00439e-12
1.94734e-13
7.6541e-13
-4.30918e-11
4.2338e-11
-6.86586e-12
1.49171e-13
-1.5949e-13
4.61549e-14
-2.06646e-13
2.10978e-11
-1.37422e-13
-2.05615e-11
-1.00749e-13
-7.98786e-14
1.49187e-13
-2.15772e-11
4.21698e-13
2.10755e-11
-2.4893e-13
1.72085e-11
1.42466e-11
-1.73408e-11
-1.30692e-11
-1.17334e-13
-1.04198e-12
4.76849e-11
4.70803e-11
8.87972e-13
-7.90529e-11
-1.28865e-11
2.63123e-12
7.77788e-11
1.51017e-11
-5.34527e-13
-4.45838e-13
-1.47587e-13
7.5962e-11
-5.29766e-10
-4.99586e-07
-1.50894e-08
-2.44863e-09
2.14428e-08
1.32275e-06
3.16196e-08
-2.87899e-11
-3.47611e-11
1.08262e-08
0.000129844
-1.11255
-0.00855735
0.000545468
0.0230696
0.972681
7.75975e-06
2.15653e-11
-3.99881e-11
9.53849e-09
0.000134419
-1.74944
-0.028853
0.00171259
0.0818185
1.23498
7.07188e-06
7.61737e-12
-2.05071e-12
9.45074e-09
0.000134958
-1.75875
-0.030133
0.00180778
0.0840825
1.23939
7.03946e-06
4.59935e-11
-1.42282e-11
1.00602e-08
0.000133257
-1.72789
-0.0298066
0.00170638
0.0833459
1.21822
7.166e-06
1.70136e-11
7.3808e-12
9.46609e-09
0.000130183
0.0275513
-0.02243
-0.0261491
-0.0292716
-0.0855594
5.24024e-06
-4.72379e-12
1.48588e-13
-1.20539e-13
9.41347e-09
4.35347e-08
2.28054e-09
-3.58907e-10
-9.74768e-09
-8.41373e-08
-8.91069e-11
5.64714e-12
-1.94939e-11
6.14093e-14
2.00152e-11
-1.01472e-13
-6.84773e-14
2.07545e-13
1.63689e-11
-3.3632e-13
-1.5864e-11
5.95335e-13
0
2.10294e-11
2.60119e-11
6.25158e-12
-2.52249e-11
-5.49712e-12
-1.09013e-12
-8.65659e-13
-1.86437e-14
-2.02193e-11
2.96633e-13
1.52941e-12
6.98394e-11
7.96515e-09
2.63476e-09
-2.73049e-10
-5.34273e-09
1.35516e-09
-1.04058e-10
9.64551e-12
8.07926e-12
-1.27963e-09
-1.18158e-06
-0.00429531
0.00128127
0.000218069
-0.00127473
0.00154792
4.14149e-07
-2.45409e-11
-1.23085e-10
-4.63477e-07
-1.18191
0.000933917
1.2268e-10
-1.66678e-10
-8.33694e-07
-1.4342
0.00184541
1.52092e-10
-1.44279e-10
-8.07542e-07
-1.43707
0.00185064
1.83736e-10
-1.26739e-10
-8.84753e-07
-1.43058
0.00182973
1.2772e-10
6.17159e-12
3.45242e-08
0.00359252
-9.17107e-05
-1.5868e-11
2.93772e-11
1.06845e-11
7.0807e-08
2.70501e-05
1.89941e-06
-3.28445e-07
-8.22132e-06
3.73594e-06
7.08563e-10
-1.8401e-11
1.4862e-12
-1.80134e-11
-6.11997e-13
2.49187e-11
8.90719e-14
-4.65635e-12
1.74351e-12
-8.03995e-13
7.46248e-12
1.02569e-11
-1.81371e-11
2.11625e-11
1.81387e-11
-2.05082e-11
5.47532e-13
-4.01711e-13
-8.4022e-13
4.47197e-13
-3.97631e-14
-1.4871e-13
-2.42031e-11
-3.09566e-11
7.00949e-11
8.21462e-09
3.47032e-09
-2.95613e-10
-7.08058e-09
1.5598e-09
-2.31122e-14
4.45611e-13
7.94039e-12
-1.43438e-09
-1.40703e-06
0.0394561
0.00110757
0.000227886
-0.00196305
0.00166889
4.79277e-07
-3.9701e-12
-1.08792e-10
-4.17668e-07
-1.21386
0.00155227
8.25306e-11
-1.5327e-10
-8.84844e-07
-1.49713
0.0019858
1.84445e-10
-1.34229e-10
-8.46104e-07
-1.50126
0.00199344
1.87473e-10
-9.02489e-11
-9.28201e-07
-1.49217
0.00195824
9.67388e-11
1.19153e-11
3.75968e-08
0.00486482
-9.8154e-05
-8.38174e-12
4.30783e-11
-1.17145e-12
7.51055e-08
3.18353e-05
2.56057e-06
-4.61331e-07
-1.06733e-05
4.20288e-06
9.14673e-10
5.94221e-13
1.20422e-11
-2.30973e-11
-1.22351e-11
2.3924e-11
8.78028e-13
-6.44443e-13
-2.54517e-11
-1.71937e-11
4.30406e-11
3.64307e-11
-4.46248e-13
4.54211e-11
1.78042e-11
-2.68183e-11
3.32336e-13
-2.41298e-11
-6.89938e-13
6.46566e-12
1.65409e-13
1.7558e-11
-2.3035e-11
-3.57956e-11
3.36214e-11
7.9999e-09
3.44478e-09
-3.10883e-10
-7.14526e-09
1.59126e-09
7.69191e-14
0
8.68299e-12
-1.55988e-09
-1.43777e-06
0.0397073
0.00110853
0.000152895
-0.00196638
0.00167826
4.92596e-07
-4.26744e-12
-1.28599e-10
-3.90415e-07
-1.21545
0.00156189
1.06369e-10
-1.51176e-10
-8.40543e-07
-1.50022
0.00199404
1.48717e-10
-1.51769e-10
-8.13462e-07
-1.50416
0.00200109
1.63312e-10
-1.01051e-10
-9.00052e-07
-1.49496
0.00196402
1.13511e-10
4.71133e-12
3.77284e-08
0.0048748
-9.84354e-05
-7.50729e-12
1.4868e-13
-2.54555e-13
7.5643e-08
3.21973e-05
2.6972e-06
-4.57253e-07
-1.079e-05
4.211e-06
9.29359e-10
-6.09664e-12
0
2.44152e-11
4.15561e-13
-4.89047e-11
-1.63616e-13
2.57489e-11
4.67902e-12
-3.12676e-13
-4.96223e-12
0
2.79789e-11
-9.37063e-14
-2.84996e-11
1.29901e-12
4.12302e-13
-1.31134e-12
-2.21464e-11
2.14636e-11
2.17169e-11
-2.09901e-11
2.08173e-12
-6.28757e-13
2.15263e-11
8.03081e-09
3.47464e-09
-4.04454e-10
-7.06204e-09
1.57092e-09
-1.10468e-13
1.48743e-13
4.21153e-11
1.09679e-10
-1.37531e-06
0.0397387
0.00110873
7.77776e-05
-0.00204091
0.00167805
4.84111e-07
2.06125e-12
-1.09221e-10
-3.91836e-07
-1.21553
0.00156327
1.12967e-10
-1.21371e-10
-8.40955e-07
-1.50029
0.00199477
1.53877e-10
-1.45803e-10
-8.11942e-07
-1.50447
0.00200145
1.41619e-10
-1.12303e-10
-8.98453e-07
-1.49503
0.0019407
1.32362e-10
6.04013e-12
3.77508e-08
0.00487962
-2.95793e-05
5.15654e-12
3.42164e-12
-7.45042e-12
7.55421e-08
3.22133e-05
2.71247e-06
-4.48665e-07
-1.08325e-05
4.21044e-06
9.69989e-10
6.54685e-12
-1.97952e-11
-3.0033e-12
1.97942e-11
-2.50761e-11
4.88376e-13
2.78856e-11
-1.34933e-12
4.50033e-13
3.80671e-13
-1.48862e-13
-2.35231e-11
-2.41651e-11
2.2344e-11
2.11837e-11
-2.2168e-11
4.09462e-12
-2.20931e-13
-2.5123e-11
-1.10445e-12
-1.48922e-13
-1.48752e-13
6.46746e-14
1.89139e-11
8.16583e-09
3.36418e-09
-2.91517e-10
-6.99887e-09
1.51062e-09
2.076e-11
-7.7375e-12
2.62267e-11
1.47229e-10
-1.38553e-06
0.039693
0.00110813
0.000152841
-0.00203986
0.00167882
4.89268e-07
-6.48219e-12
-1.37115e-10
-4.1194e-07
-1.21509
0.00156144
1.11793e-10
-1.45432e-10
-8.62204e-07
-1.49932
0.00199023
1.44851e-10
-1.85245e-10
-8.33172e-07
-1.50326
0.00199653
1.28515e-10
-1.22178e-10
-9.23537e-07
-1.49404
0.0019548
7.9559e-11
2.94821e-12
3.76969e-08
0.00486393
-0.00025477
3.98004e-12
2.97649e-13
-2.0598e-12
7.55032e-08
3.18751e-05
2.66306e-06
-3.79461e-07
-1.05953e-05
4.18092e-06
8.7858e-10
7.14452e-12
0
1.72861e-11
-5.12157e-14
-1.66376e-11
7.51114e-13
-3.58919e-13
-8.2425e-13
1.92466e-11
4.01782e-14
-1.921e-11
-2.97844e-13
-2.17912e-13
6.65865e-13
1.8841e-11
-9.52669e-14
-1.86229e-11
-1.87559e-13
3.48549e-14
-1.17021e-13
-1.4896e-13
2.97597e-13
-1.02543e-12
-2.9956e-11
4.13456e-09
1.00914e-09
-6.05511e-11
-2.35801e-09
1.17414e-09
7.66455e-11
-2.054e-11
2.37405e-11
9.51388e-11
-1.32724e-06
0.0335312
0.000865384
7.54653e-05
-0.00149553
0.00164722
4.63172e-07
-1.73986e-11
-2.18582e-11
-2.4066e-07
-1.19523
0.00135271
7.72205e-12
-1.43696e-11
-2.94099e-07
-1.456
0.00153267
4.20909e-12
-1.27741e-11
-2.68126e-07
-1.45914
0.00153542
1.20476e-11
1.50132e-11
-3.69548e-07
-1.45212
0.00152747
8.598e-12
7.37569e-13
3.19521e-08
0.00376973
-8.62857e-05
4.71975e-12
1.48861e-13
3.90645e-11
6.69283e-08
2.25891e-05
1.6158e-06
-2.13107e-07
-6.44694e-06
3.22115e-06
8.0644e-10
0
0
-5.90019e-14
-2.50975e-11
-5.60735e-13
2.61008e-11
8.49407e-13
-3.05947e-11
-1.35929e-13
3.00647e-11
0
-4.49807e-11
-1.91908e-11
2.63852e-11
4.85328e-13
6.32255e-14
2.67029e-11
-5.15179e-14
-2.74208e-11
-8.51917e-14
0
-3.86942e-11
-3.13813e-11
-1.78615e-12
-2.27454e-11
-5.1433e-12
5.1197e-13
1.06928e-11
8.53825e-12
-1.30956e-12
-6.84677e-12
-8.10966e-12
4.26623e-11
-3.27476e-07
4.52996e-06
1.30846e-07
1.09241e-08
-2.54288e-07
-1.97146e-05
5.45641e-08
-7.66749e-12
-7.72257e-12
1.90222e-09
-0.00061082
-1.94577e-06
2.97239e-11
-1.45149e-13
1.83351e-09
-0.000628498
-2.04014e-06
1.45143e-13
2.17737e-11
1.82821e-09
-0.000629194
-2.0462e-06
7.69293e-12
2.52128e-11
1.85631e-09
-0.000627615
-2.01797e-06
8.30611e-12
-5.89996e-13
8.42971e-10
-0.000566544
-9.84148e-07
-8.25903e-12
1.19101e-12
-1.82811e-11
1.58677e-09
-1.83663e-08
-1.3801e-09
2.05624e-10
4.87377e-09
2.64106e-08
-2.47552e-11
2.9776e-13
0
-3.41696e-13
4.98227e-14
3.45768e-13
-7.44962e-12
-5.83961e-14
6.93771e-12
1.05407e-13
1.31377e-12
2.97928e-13
0
1.59905e-14
-2.64827e-14
2.9096e-11
1.92574e-11
-2.86903e-11
9.73624e-13
-1.8342e-11
-2.13932e-11
1.7279e-11
8.9291e-13
-1.10783e-13
1.48923e-12
9.78875e-13
-1.00591e-12
-5.7086e-13
3.71402e-11
5.29566e-12
-4.31452e-11
6.3993e-12
-7.36721e-12
-2.9211e-11
8.48744e-11
7.04182e-11
-1.37365e-12
-8.37058e-11
-1.51119e-12
-6.43929e-11
1.2821e-11
-7.51513e-12
-7.99666e-12
1.6764e-11
-8.21157e-13
-1.3998e-11
-2.77722e-11
-3.87851e-11
-3.21066e-11
1.11532e-11
3.89813e-11
-7.38059e-12
2.89456e-13
-3.71496e-13
1.57002e-11
3.44387e-12
-1.44721e-13
0
-8.87118e-14
6.48668e-12
2.91421e-13
-3.05349e-11
-5.11442e-11
-1.94613e-11
-4.74553e-12
6.29185e-12
-1.96003e-11
-1.38442e-11
1.55083e-11
0
-1.93902e-12
4.20895e-12
-1.98954e-12
-8.09938e-13
1.80539e-13
-1.07687e-13
-1.11641e-11
4.46836e-13
6.19101e-14
-7.86889e-13
1.05364e-13
-2.95368e-14
-7.329e-13
-2.01049e-13
-2.3113e-11
3.40263e-13
2.36838e-11
-4.21485e-11
-3.56982e-13
4.17447e-11
-1.74933e-11
1.386e-11
1.74124e-11
-1.3348e-11
-2.71363e-13
1.61954e-13
-1.48942e-13
5.65456e-12
2.22389e-13
-3.78325e-11
3.77706e-11
2.29925e-13
-1.84179e-13
-5.57376e-11
6.29657e-11
-6.20995e-12
4.61277e-12
2.94572e-13
-9.50026e-13
9.4136e-11
2.90536e-12
-1.17958e-12
8.93724e-13
-2.00159e-12
-3.21361e-12
1.20929e-12
-9.57425e-12
-1.45253e-13
4.31888e-13
1.49369e-12
-5.88362e-13
0
0
1.26753e-12
3.67781e-11
1.46454e-13
-2.89052e-13
-1.15629e-12
2.08139e-13
-2.50252e-12
2.20139e-11
-1.34413e-11
-4.35818e-13
-1.23804e-13
9.4415e-13
1.13771e-11
2.45493e-11
-2.94653e-13
2.23261e-13
3.01032e-11
1.51493e-11
-3.53539e-11
-1.96469e-11
-3.64449e-11
-2.92868e-13
-1.86218e-11
-1.9837e-13
2.39271e-13
-8.10797e-13
8.372e-13
-2.83161e-13
-1.04183e-12
-1.89146e-11
-3.96391e-11
-3.08993e-13
3.90042e-11
1.73606e-11
-1.84667e-11
-1.59261e-11
1.60524e-13
-1.16266e-12
-1.4894e-13
7.44638e-13
6.11751e-13
-4.60327e-15
-9.68025e-12
2.30727e-13
9.90818e-12
1.89007e-11
2.33169e-11
-1.91983e-11
-2.4127e-11
0
-1.00667e-12
5.95795e-13
3.8561e-11
-3.75819e-11
-3.57632e-11
3.52425e-11
1.76531e-12
-2.27238e-12
3.08007e-11
6.03821e-12
-1.12399e-11
-2.29145e-12
4.06824e-12
1.67538e-10
-6.25721e-11
3.80152e-13
-1.39529e-13
1.16556e-11
-2.94546e-13
1.45225e-13
-5.04636e-13
1.21154e-10
1.64249e-11
2.78832e-11
2.55753e-11
1.46313e-11
-9.79776e-13
3.44366e-11
-1.43045e-11
5.77993e-13
-1.85312e-12
6.93829e-12
-1.48301e-11
8.23615e-12
-6.82631e-12
4.95893e-11
-3.58043e-11
1.37168e-11
1.8009e-11
1.29628e-11
-1.16666e-11
4.32159e-13
-1.11241e-11
2.79858e-12
-2.51522e-11
-2.85114e-11
-1.20785e-12
1.24451e-12
-7.05759e-13
4.86743e-13
-3.66433e-11
3.7577e-11
-5.1796e-13
0
0
1.54899e-13
2.09409e-13
-4.58659e-13
-7.62098e-13
-2.32433e-11
2.15841e-11
2.59379e-11
-2.08917e-11
-1.93609e-12
2.38293e-12
2.62913e-12
7.38609e-13
2.50023e-11
-1.71175e-13
-1.29371e-11
2.17928e-13
-1.20048e-11
2.09796e-11
2.08513e-11
-6.1007e-12
8.59858e-13
2.97885e-13
5.12879e-11
-5.13779e-11
3.68899e-11
-3.64899e-11
-2.94186e-13
3.56983e-11
-6.10079e-12
4.27131e-11
3.59277e-11
7.03417e-11
0
0
-7.38235e-13
1.80189e-10
-1.04719e-10
3.99597e-11
-9.57351e-12
-1.0314e-11
-1.70113e-12
-1.59587e-12
-1.73693e-11
8.28012e-12
-7.80574e-12
3.83712e-11
-8.30008e-11
-1.36985e-11
6.21566e-12
-4.56799e-11
-1.68932e-11
1.07406e-10
-7.04614e-12
1.44554e-13
-7.26411e-13
-2.80735e-13
-4.91123e-13
-6.20012e-12
1.16222e-12
2.44546e-11
-4.11079e-11
7.74956e-11
-4.55258e-11
4.19829e-11
3.6017e-11
2.62108e-11
5.07265e-11
-5.05333e-11
5.53133e-11
-1.12926e-10
5.5975e-11
-2.47067e-13
6.48059e-13
-2.14311e-11
0
5.20218e-13
-2.25019e-11
-2.49957e-13
5.01666e-11
-2.44205e-14
-2.74883e-11
-1.80661e-13
-1.4752e-13
0
5.95762e-13
3.0481e-13
6.40781e-13
-1.01149e-13
-4.10427e-13
-1.55514e-12
1.47457e-13
1.77924e-12
1.84558e-11
1.84698e-11
-1.90468e-11
5.42493e-12
-4.31766e-11
1.14934e-12
2.75791e-11
-2.85566e-11
5.16394e-13
-2.9411e-13
-3.34732e-13
-8.48244e-12
2.50487e-11
2.49695e-11
1.50264e-13
0
-2.3576e-12
-1.54926e-12
5.74632e-13
3.68495e-12
1.50841e-11
0
-4.36341e-13
4.05277e-13
2.74527e-13
-7.26042e-14
9.45422e-12
1.44808e-13
2.64431e-13
3.695e-11
1.55827e-11
-1.44808e-13
-5.93736e-12
1.2206e-11
3.98431e-12
-1.60509e-11
5.06843e-12
-3.25844e-11
-2.50483e-11
3.83706e-12
5.82889e-13
0
-4.71621e-12
8.40483e-12
4.26142e-11
-5.83652e-11
1.50322e-11
-2.42618e-11
-2.52862e-11
-6.03474e-13
-5.07658e-11
5.09065e-11
1.61897e-13
-3.17062e-13
-7.42779e-13
-1.8627e-13
-4.46525e-13
3.23217e-11
3.8612e-13
-3.2277e-11
-2.71541e-11
-3.29062e-13
2.6474e-11
5.93725e-13
2.78186e-11
-2.26442e-13
-2.81512e-11
-1.48961e-13
2.3103e-13
-2.24424e-11
-4.41661e-13
2.23766e-11
-2.49477e-13
9.99381e-14
5.87723e-14
-1.15665e-13
-2.9797e-13
1.19063e-12
5.01362e-14
5.65533e-11
-9.96188e-11
4.31546e-11
-4.45225e-11
4.55324e-11
1.16363e-12
-2.41517e-12
-6.10321e-12
0
-1.25095e-12
2.2301e-12
-1.17655e-12
1.5828e-10
-1.57104e-12
3.9421e-14
8.28303e-14
-1.15974e-11
-1.47476e-13
-7.14218e-12
-4.63899e-13
-2.61969e-11
3.87304e-11
-6.26775e-12
4.35648e-13
1.62888e-13
4.33047e-12
-7.81291e-12
-1.30695e-12
-8.71334e-13
-9.98759e-13
-8.02735e-11
1.24769e-11
6.38975e-12
1.89508e-12
-5.90774e-12
-3.11912e-11
-1.13788e-11
1.45771e-13
-1.06208e-11
9.54267e-12
2.14965e-12
2.26422e-12
-1.04725e-11
1.04228e-12
-1.05461e-11
1.26397e-11
-4.65526e-12
4.12564e-13
-4.53104e-13
-6.15422e-11
6.324e-11
2.4845e-13
-2.38228e-11
0
-2.1449e-13
1.95021e-13
-1.45913e-13
1.72653e-14
3.0155e-11
2.12005e-11
-3.03831e-11
-2.23924e-11
-4.46956e-13
5.95862e-13
8.71046e-13
-7.03434e-13
-1.44433e-13
4.60438e-13
2.01162e-14
-1.44246e-13
-2.59289e-14
-1.53559e-13
-2.98006e-13
-2.35153e-11
-2.35218e-11
-5.95658e-13
3.57374e-13
1.34365e-14
5.66875e-13
6.42862e-13
2.94504e-13
1.79881e-13
1.44418e-11
1.12068e-11
-4.37363e-13
-1.64192e-12
-2.22088e-12
-1.36853e-12
-7.39499e-11
6.62575e-12
2.55589e-13
2.51418e-12
-6.04678e-12
1.45656e-13
-2.25174e-13
-2.74982e-11
1.02092e-12
-2.95694e-11
-6.81709e-12
-3.84099e-11
6.59887e-11
5.51315e-11
7.25245e-13
0
-6.66585e-13
-1.47668e-11
1.56525e-11
-3.19116e-12
-1.45662e-12
3.57455e-12
-2.42546e-11
-2.46699e-11
-2.49078e-11
1.40126e-11
-1.1485e-11
-8.60965e-13
1.63994e-11
8.55475e-12
7.44616e-12
2.39247e-13
-1.11682e-12
4.52461e-13
-2.20523e-14
-4.71625e-11
4.71228e-11
2.4641e-11
-2.47281e-11
2.97843e-13
-3.20351e-11
-7.73069e-13
3.2143e-11
1.82489e-13
-1.66852e-13
4.03107e-13
-2.39227e-13
-3.08431e-11
-4.54166e-14
3.11412e-11
0
-9.95994e-14
1.40267e-13
1.49148e-13
1.92884e-14
-8.20911e-14
-3.48701e-13
3.71376e-14
-5.02564e-14
1.48993e-13
7.1422e-12
2.00189e-15
3.63477e-11
-3.57598e-11
1.23883e-12
-2.08704e-12
4.50164e-13
1.47123e-12
-1.06768e-13
-3.31949e-11
9.13619e-12
-1.32109e-11
1.43159e-12
-2.31638e-12
5.45355e-13
1.05595e-13
6.67734e-13
4.36306e-13
0
-1.85688e-11
1.45381e-13
-3.51855e-11
8.19029e-11
-5.78814e-12
-2.50053e-11
-5.35254e-12
3.71116e-11
-4.90422e-11
1.23617e-11
9.11405e-12
1.27307e-11
1.12693e-13
-9.4093e-14
-2.66042e-11
-2.40153e-11
1.45374e-13
-6.93144e-13
3.79792e-11
3.32989e-11
1.45378e-12
-1.47386e-13
-1.9307e-13
1.09373e-11
1.15569e-11
2.03398e-11
3.70743e-11
2.86512e-11
2.11311e-12
-2.23172e-12
1.33798e-12
-1.27257e-13
-1.96393e-13
-6.24222e-13
7.45193e-14
2.06971e-11
-3.57589e-12
-2.28163e-11
5.06345e-12
2.67017e-13
-4.16741e-11
1.04963e-13
-1.28041e-12
-3.0219e-14
4.16091e-11
2.2648e-11
0
2.10171e-11
2.99781e-13
-2.06819e-11
-3.28998e-14
-5.58672e-13
-8.34366e-14
1.93411e-13
-1.38181e-13
2.98008e-13
1.81526e-11
-5.97279e-11
3.87353e-11
-6.91898e-13
8.21644e-14
-3.29993e-13
-5.59106e-11
5.47362e-11
1.17571e-12
-6.99623e-12
-1.56166e-11
-2.65396e-12
9.78279e-13
-5.9708e-11
-9.05192e-11
8.7193e-12
2.84359e-12
-8.27955e-11
7.36647e-11
-7.80839e-12
-1.45302e-13
6.95226e-13
3.27291e-11
1.01725e-12
2.39722e-11
2.89105e-13
-1.40098e-12
1.02905e-12
-5.14933e-11
6.64955e-12
-6.07135e-12
4.19397e-11
-2.14073e-11
1.18164e-11
8.96268e-12
4.06824e-12
7.16452e-12
1.70097e-12
7.14835e-11
-2.13589e-11
-1.47352e-13
5.6632e-13
-2.47728e-11
1.89566e-11
-2.94725e-13
-4.61545e-12
-1.10325e-12
-1.14422e-13
3.98582e-13
-5.24341e-13
4.73662e-11
-4.63595e-11
-7.99535e-11
8.15618e-11
-4.467e-13
-2.98011e-13
1.79771e-11
-2.57221e-11
-1.79813e-11
2.28329e-11
-4.40416e-14
-2.51341e-11
-2.47978e-11
2.84729e-11
2.54806e-11
-4.47031e-13
2.60346e-14
-2.15629e-11
1.41652e-11
1.1163e-12
-5.54764e-11
2.08857e-11
4.121e-11
2.01346e-11
1.95265e-11
-5.95376e-12
8.76009e-13
-1.19187e-12
-4.68409e-13
1.65271e-13
-4.71475e-13
3.27848e-14
-1.15052e-12
1.87002e-12
2.87389e-11
-5.89519e-12
7.46455e-11
-1.00845e-10
-8.8117e-11
8.05546e-13
1.62471e-12
-8.77338e-11
2.37623e-12
-9.67308e-14
-2.12226e-11
-3.7797e-12
-3.13553e-12
1.02474e-10
1.11927e-11
-1.88958e-12
2.89271e-13
4.48641e-11
-2.13482e-11
1.36995e-11
-6.94252e-12
7.23197e-12
5.03768e-14
2.64491e-11
1.49005e-11
1.44643e-13
-2.90731e-13
-3.74195e-11
5.01745e-11
-1.18903e-11
0
1.47405e-13
-1.17383e-13
-1.78603e-11
3.70318e-12
-1.62159e-11
5.43607e-11
4.3047e-11
9.05971e-13
-6.2354e-12
5.74418e-12
2.65225e-15
7.89318e-13
-1.43671e-12
-3.83417e-11
1.19159e-11
0
3.47554e-13
1.78475e-13
2.41308e-14
-1.34039e-13
-4.85162e-13
3.74166e-13
6.97468e-13
-3.48609e-13
-5.96255e-13
4.47369e-13
-1.81076e-13
-2.33861e-11
-1.7425e-11
2.27742e-11
1.7357e-11
-1.79326e-11
-4.03096e-11
-3.41935e-12
1.83468e-11
7.15099e-12
-5.58641e-13
1.19163e-12
-5.70066e-13
-1.65496e-13
-2.72805e-13
-2.32128e-13
5.3585e-13
-4.25364e-11
1.63934e-11
4.02917e-11
3.36554e-11
-4.32137e-14
1.15909e-12
-3.77701e-11
8.89504e-11
8.98164e-13
3.50995e-13
2.26957e-12
-3.24724e-12
-2.62297e-11
-4.66356e-12
-1.31515e-10
-1.58294e-11
-2.34585e-11
-2.45172e-11
-3.0385e-11
7.8895e-13
-4.71208e-11
1.4506e-13
-2.43725e-11
-5.27438e-12
-4.49642e-13
-2.96889e-11
5.80267e-13
1.45719e-13
3.57202e-11
-4.94457e-11
-4.80933e-12
-5.97462e-12
1.63857e-11
3.92785e-11
7.43018e-11
-3.80327e-11
8.85818e-13
-7.15495e-12
-6.39372e-13
0
-3.66968e-11
3.68622e-11
-3.34952e-13
-3.60611e-11
8.5118e-11
-4.96118e-11
0
4.266e-11
2.17978e-11
4.5039e-12
1.07853e-13
-4.48367e-11
1.71218e-11
1.96497e-11
-2.25831e-11
-1.33784e-12
3.43097e-12
-1.49254e-13
1.99495e-13
-1.43305e-13
-4.84799e-13
-1.4159e-13
-4.43121e-14
1.80347e-11
1.84035e-11
-1.89597e-11
-1.88091e-11
-6.56559e-12
-1.6846e-11
-1.07264e-11
9.83427e-12
8.89217e-14
2.16181e-13
4.73935e-14
-3.38639e-13
-8.99447e-13
-2.29847e-11
4.26634e-11
-8.17337e-12
6.92366e-11
-5.78388e-13
6.98855e-13
7.70971e-11
-5.57166e-14
4.49813e-12
1.79548e-13
4.44542e-13
1.4676e-13
-8.23809e-14
2.62572e-13
2.02955e-12
8.07294e-12
7.31788e-13
3.76137e-11
3.09492e-11
-3.27236e-11
-1.37581e-11
0
5.3419e-13
-8.38908e-13
-1.46326e-13
-1.46374e-13
3.3318e-11
2.76189e-11
2.73676e-13
3.96693e-11
-8.07428e-12
3.02263e-11
3.59306e-11
-1.43637e-13
-5.67407e-11
1.46737e-11
2.32868e-11
2.36858e-11
4.43184e-11
-9.49219e-11
5.06075e-11
-3.9154e-14
3.76463e-13
-9.45031e-13
3.53862e-11
1.1945e-12
2.98556e-13
4.74963e-13
3.28764e-13
3.41579e-13
-5.80745e-13
-1.37716e-13
-2.17159e-11
-2.13717e-11
2.22393e-11
2.1201e-11
0
7.82976e-13
2.74578e-13
-1.06664e-12
-1.03418e-13
9.11408e-14
3.74269e-13
-1.47362e-13
-3.98657e-13
0
9.5526e-12
3.91127e-11
1.19551e-12
-1.85852e-13
1.07771e-12
-1.59528e-12
5.94631e-13
3.4801e-13
-9.66762e-14
0
-7.58501e-12
4.70711e-11
6.7458e-11
1.2256e-12
8.58927e-11
4.75616e-11
1.53627e-12
-3.00198e-13
7.55343e-11
-1.33922e-12
8.73769e-12
-2.18541e-11
-4.1549e-11
4.72313e-11
-5.63192e-12
-9.46946e-12
1.07767e-11
-1.21416e-10
1.7185e-11
-1.16987e-11
2.95935e-13
9.66884e-13
-1.84335e-11
1.97686e-11
-6.07205e-12
0
3.71087e-13
6.3417e-11
-7.34392e-12
6.22652e-12
3.31741e-11
3.20139e-11
2.34961e-11
3.71216e-13
0
1.49303e-13
-1.65611e-13
-3.41605e-11
3.24216e-11
3.2192e-12
-3.75779e-11
3.66127e-11
1.44688e-12
-1.79625e-14
2.3598e-11
-2.89491e-11
2.96613e-12
3.18086e-11
-3.09592e-13
1.48045e-14
-5.78635e-14
5.68869e-12
-2.53582e-13
-5.35002e-12
0
1.75675e-11
1.85203e-11
9.23733e-13
-3.71776e-13
-7.89936e-13
1.96607e-14
4.11283e-11
6.08115e-13
-4.11599e-11
1.48878e-13
0
1.25791e-12
-1.60789e-13
-2.3707e-12
1.18661e-12
5.7466e-13
-2.12822e-13
3.40437e-13
-5.09834e-13
6.25216e-12
-1.23294e-11
6.48127e-11
-5.2939e-11
1.17758e-12
3.16755e-13
-2.52333e-13
-1.79695e-11
3.38124e-11
-3.26861e-11
0
-3.5588e-11
-7.0231e-11
3.94601e-11
2.4774e-13
-9.18068e-13
3.93155e-13
3.75185e-11
2.40717e-11
1.49494e-12
2.26952e-11
-3.27621e-11
-2.44051e-11
-1.30053e-11
5.20031e-11
-4.82272e-11
3.80082e-13
-3.81339e-11
-1.99687e-11
-1.42502e-13
7.56327e-12
6.52315e-12
-1.21765e-11
6.0783e-13
-7.40489e-13
2.20603e-12
4.5165e-11
1.60312e-12
-6.83143e-11
4.4884e-11
-1.49798e-11
1.48309e-13
-3.92766e-11
5.46654e-11
2.0845e-11
9.83256e-13
1.23431e-13
-5.27111e-13
-2.0444e-11
-3.51496e-11
-5.19318e-12
-2.97167e-13
-5.70878e-11
6.77799e-11
-9.77139e-11
-5.89981e-14
-4.81934e-12
-1.09114e-12
8.33614e-11
3.36617e-11
-5.64851e-12
-4.6448e-11
-7.70041e-11
3.4171e-11
1.60565e-13
-4.44041e-11
4.4881e-11
1.20305e-13
-9.64956e-14
-5.25712e-13
5.50987e-12
2.97743e-13
2.16521e-13
2.38657e-13
2.04533e-11
-2.0996e-13
-4.96335e-13
7.80848e-14
-2.00112e-11
-5.96924e-13
-7.44531e-13
7.4233e-13
7.54879e-13
-1.90983e-13
-1.62342e-13
-3.2998e-14
2.31345e-11
1.84786e-11
-3.42567e-12
-1.85053e-11
-1.95975e-11
2.04734e-11
1.3781e-13
-3.969e-11
-2.90508e-11
1.91118e-11
2.75048e-12
1.22495e-13
4.96003e-11
-5.25791e-12
-2.83405e-11
1.4814e-13
1.58041e-11
9.00884e-13
-1.84616e-12
1.17603e-12
-5.88236e-13
2.93845e-13
4.64389e-11
-4.68412e-11
6.37368e-12
-1.47983e-13
1.47144e-11
-1.29445e-11
-4.64021e-13
8.77966e-13
-8.87228e-13
2.94639e-13
3.54604e-11
-1.60007e-11
-5.9202e-13
1.1984e-11
-4.61132e-12
-1.49522e-11
-7.21379e-13
-8.65725e-12
2.61795e-11
-6.20939e-12
1.32513e-11
-1.91841e-12
-7.39871e-13
1.81988e-11
-6.60377e-12
-1.1865e-11
-4.88124e-14
1.87061e-11
-3.58837e-11
2.07281e-11
-1.41107e-11
-2.15835e-11
-1.16905e-11
1.48002e-13
-2.95433e-11
5.75666e-12
-3.87571e-11
-6.67344e-13
2.03752e-11
1.29865e-11
-1.42482e-11
-8.77874e-12
2.7237e-11
1.71868e-11
-5.31803e-12
-2.30361e-11
1.4896e-13
-1.20379e-12
6.45599e-13
2.57971e-13
-3.79952e-11
-1.15971e-11
-1.77827e-11
-1.48373e-13
-6.44222e-12
-3.57554e-11
1.78844e-11
-5.82558e-13
4.66028e-13
2.0995e-11
-4.05913e-13
-2.04668e-11
0
4.45377e-13
3.98679e-13
-3.49463e-13
2.01034e-11
6.7749e-14
-2.06372e-11
-2.83018e-13
3.46064e-13
6.53503e-14
0
4.44611e-13
1.74096e-13
5.7683e-13
4.08107e-13
8.76147e-12
-1.53644e-13
-2.59275e-11
2.88531e-13
1.6559e-11
-2.96402e-13
4.02883e-11
1.81725e-11
-2.22837e-11
-6.31408e-13
-2.5991e-13
-1.2586e-12
1.80509e-13
1.14042e-12
-4.27046e-14
1.48118e-13
1.76121e-11
-2.4028e-12
-6.53616e-13
1.93675e-11
2.68648e-13
-2.20308e-13
2.28941e-11
2.35418e-11
-2.10657e-11
-2.11658e-11
2.84007e-11
5.32429e-13
-2.82072e-11
-3.68064e-12
-2.64452e-13
3.2897e-12
2.05433e-11
-3.29476e-14
-2.05155e-11
-1.4792e-13
0
2.82518e-11
2.12159e-13
-2.8645e-11
8.50351e-14
-3.26527e-13
2.22913e-11
-3.56372e-13
-2.51126e-11
-2.07046e-12
-2.23337e-11
-3.95152e-13
2.23957e-11
3.74462e-13
2.08464e-13
-6.08952e-13
-1.16568e-12
-1.31956e-13
8.36491e-13
0
-2.44081e-11
-2.48089e-11
1.73533e-11
-2.94883e-13
-1.77896e-11
6.41757e-13
-1.92789e-11
-1.12662e-13
1.91681e-11
-2.95839e-13
-5.92027e-13
-5.15473e-13
1.69174e-11
-4.23083e-14
-3.61465e-11
-8.11008e-14
1.94778e-11
2.12429e-15
-1.66745e-11
-1.68726e-11
0
-3.5496e-14
1.72551e-13
-9.49666e-14
-1.15612e-13
2.0681e-11
-3.31738e-13
-2.04356e-11
1.30846e-13
-1.4812e-13
-5.03867e-12
1.86397e-11
2.38905e-11
-3.14531e-14
-2.16714e-13
1.74648e-14
3.68999e-13
-9.63062e-14
4.62847e-14
1.482e-13
2.96112e-13
-4.49487e-14
-2.18344e-11
7.28069e-12
2.18459e-11
-7.07193e-12
-2.60838e-13
1.93147e-11
-2.65319e-14
-1.93947e-11
-1.03605e-12
-2.852e-11
-2.72878e-11
6.00512e-13
-5.45583e-13
8.86844e-14
8.50774e-13
6.18234e-13
1.63619e-11
1.61324e-11
-5.91781e-13
-3.80257e-13
-1.90893e-14
7.07258e-15
-1.0709e-13
-1.62056e-13
-3.16789e-14
5.43736e-14
1.83964e-11
1.80489e-11
9.76169e-12
5.37069e-13
-9.69636e-12
-1.08248e-12
1.6217e-13
4.61846e-13
-4.13004e-13
1.56998e-13
-7.43766e-14
-1.47892e-13
2.95779e-13
8.33771e-14
-1.64441e-13
1.16444e-13
-1.64702e-11
-3.0464e-13
1.66405e-11
-1.65824e-13
-5.06004e-12
-4.87976e-12
3.40143e-12
-1.86873e-11
-2.82642e-12
1.9675e-11
-1.77909e-11
-2.11304e-13
1.71127e-11
3.56455e-14
3.20896e-13
-1.47868e-13
-1.78962e-11
-1.82154e-11
-4.76758e-13
1.01257e-12
6.06522e-13
2.00726e-11
1.8e-11
-4.0155e-11
-1.78493e-11
1.95207e-11
0
-6.11426e-13
1.78956e-14
7.5045e-13
4.49546e-14
-2.2761e-13
2.61846e-13
-3.12747e-14
-1.34476e-13
0
0
-5.52456e-14
-4.66664e-13
-1.88063e-11
4.10294e-13
1.93061e-11
-6.46582e-14
-3.41861e-13
1.13803e-13
0
8.58665e-12
-1.89305e-11
-1.0275e-11
1.86655e-11
2.35996e-11
1.71103e-11
-2.38411e-11
-1.78757e-11
-6.4293e-14
1.4804e-13
5.91907e-13
7.84952e-12
1.53261e-13
-7.40965e-12
-1.84059e-11
3.1892e-13
4.35804e-11
-6.83263e-13
-2.50788e-11
0
0
2.71149e-13
1.67085e-14
3.10854e-14
-2.3153e-13
-2.79468e-13
5.10439e-13
6.42023e-14
-5.1404e-13
0
-1.96733e-11
-2.02435e-11
-1.02072e-12
-4.26505e-13
5.12546e-13
4.96406e-13
-2.23266e-11
-1.10205e-13
2.22163e-11
0
1.47897e-13
2.46987e-11
2.66425e-13
-2.36721e-11
-1.64523e-13
-1.50269e-12
-1.67589e-13
4.4029e-13
-2.06119e-14
-1.47881e-13
-4.43663e-13
5.29256e-14
2.32329e-13
5.08608e-13
2.0528e-11
-3.74436e-13
-2.07105e-11
-2.54729e-11
-2.25748e-11
2.51373e-12
1.18312e-11
-5.65829e-12
-2.32216e-13
1.77756e-11
4.08264e-13
9.93738e-14
-5.87538e-13
1.15143e-13
-5.14338e-14
0
-2.04098e-11
-4.33599e-11
-2.43771e-13
2.30036e-11
4.06748e-13
-8.83538e-14
-2.72132e-13
-2.41773e-11
-1.3806e-14
2.4103e-11
-1.47913e-13
-2.48061e-11
-2.16485e-11
2.44022e-11
2.14677e-11
2.1828e-13
2.42957e-13
-6.3799e-13
2.57364e-13
5.91577e-13
-1.90847e-11
-1.90081e-11
1.1924e-13
-1.39011e-13
-1.14146e-13
-3.18064e-14
-2.24175e-11
3.06289e-14
2.24446e-11
0
1.47969e-13
-1.33588e-13
2.87526e-13
5.16652e-14
-6.69721e-13
-1.98209e-13
5.67355e-13
8.18525e-14
-2.8405e-13
-2.95913e-13
-1.95268e-11
-7.41382e-13
1.90744e-11
1.44463e-13
2.64437e-18
-2.40494e-13
3.55826e-13
1.54856e-13
-9.50576e-14
0
-2.95833e-13
4.40582e-14
-1.83114e-12
-2.6882e-13
2.24866e-12
-1.19647e-13
1.57387e-13
3.46454e-14
-3.26041e-14
1.47904e-13
1.78957e-11
6.97883e-14
-1.78863e-11
2.39198e-11
5.63987e-13
-2.45751e-12
-1.73601e-12
-2.14465e-11
2.37266e-11
2.27744e-11
0
-1.83108e-11
-8.21586e-14
1.84605e-11
5.30003e-13
8.92895e-14
-2.22948e-11
1.18178e-11
2.16085e-11
-1.19773e-11
0
1.10518e-13
-7.05348e-14