/*--------------------------------*- C++ -*----------------------------------*\
  =========                 |
  \\      /  F ield         | OpenFOAM: The Open Source CFD Toolbox
   \\    /   O peration     | Website:  https://openfoam.org
    \\  /    A nd           | Version:  10
     \\/     M anipulation  |
\*---------------------------------------------------------------------------*/
FoamFile
{
    format      ascii;
    class       volScalarField;
    location    "2.1";
    object      gradTz;
}
// * * * * * * * * * * * * * * * * * * * * * * * * * * * * * * * * * * * * * //

dimensions      [0 -1 0 1 0 0 0];

internalField   nonuniform List<scalar> 
3000
(
-1.60849e-09
-2.79776e-11
-1.77636e-12
1.46549e-11
-1.24345e-11
-2.30926e-11
-1.64313e-11
8.88178e-13
-3.9968e-12
-1.2168e-10
-1.63958e-09
2.39808e-11
-5.55112e-11
-1.42109e-11
-5.63993e-11
-4.92939e-11
-4.4853e-11
-1.90958e-11
-4.92939e-11
-2.22045e-12
-1.64846e-09
-2.88658e-11
-1.46549e-11
-5.15143e-11
-6.83897e-11
-2.79776e-11
-6.30607e-11
-1.90958e-11
-1.19016e-10
-1.37668e-11
-1.64979e-09
2.84217e-11
-1.42109e-11
-1.42109e-11
-5.32907e-11
-1.22569e-10
-3.37508e-11
-1.40776e-10
-3.28626e-11
-4.88498e-11
-1.64446e-09
-3.19744e-11
-1.02141e-11
-1.24345e-11
-6.66134e-11
-6.30607e-11
-4.17444e-11
-1.25233e-10
-1.62981e-10
-4.92939e-11
-1.64402e-09
-1.86517e-11
-1.46549e-11
1.73195e-11
-6.66134e-11
-2.70894e-11
-6.35048e-11
3.9968e-12
-1.1946e-10
-1.42109e-11
-1.64535e-09
-2.13163e-11
-7.10543e-12
4.44089e-13
-1.86517e-11
-2.04281e-10
-1.13687e-10
-1.25677e-10
-1.13243e-10
-4.92939e-11
-1.6489e-09
-5.68434e-11
-1.42109e-11
-3.77476e-11
-2.17604e-11
-1.90958e-11
-4.61853e-11
-1.25233e-10
-6.39488e-11
-4.61853e-11
-1.63825e-09
-4.26326e-11
-1.64313e-11
-3.4639e-11
-5.72875e-11
-1.18128e-10
-3.9968e-12
-1.90958e-11
-1.66533e-10
-6.35048e-11
6.17284e-11
2.75335e-11
-1.59872e-11
-7.4607e-11
-2.35367e-11
-1.16351e-10
-1.44329e-10
6.21725e-12
-2.57572e-11
-1.55431e-11
-1.5703e-09
-3.86358e-11
2.22045e-11
1.73195e-11
-2.9754e-11
0
-3.59712e-11
-1.17684e-10
1.15463e-10
-1.16795e-10
-1.6489e-09
-3.01981e-11
-2.35367e-11
1.55431e-11
-7.9492e-11
-3.9968e-12
-2.17604e-11
-7.99361e-12
1.95399e-11
-9.76996e-12
-1.67066e-09
1.77636e-12
1.24345e-11
-7.54952e-11
-3.55271e-12
-3.10862e-12
-4.52971e-11
-5.32907e-12
-2.05169e-10
-9.01501e-11
-1.6227e-09
2.35367e-11
-3.24185e-11
-2.26485e-11
-1.14575e-10
-2.07834e-10
-4.4853e-11
-1.35891e-10
-8.30447e-11
-4.84057e-11
-1.67244e-09
-5.4623e-11
2.39808e-11
-3.77476e-11
-6.70575e-11
-6.30607e-11
-8.39329e-11
-1.90514e-10
-2.05613e-10
-6.70575e-11
-1.62093e-09
1.19904e-11
1.24345e-11
-4.66294e-11
1.46549e-11
-9.10383e-11
-4.52971e-11
1.68754e-11
-2.05613e-10
-2.75335e-11
-1.672e-09
-9.32587e-12
-1.33227e-12
-3.19744e-11
-7.59393e-11
-2.06057e-10
-1.77636e-10
-1.69642e-10
-1.76748e-10
-4.9738e-11
-1.65601e-09
-9.32587e-11
-3.15303e-11
-2.53131e-11
-2.44249e-11
-2.22045e-12
-5.50671e-11
-1.36335e-10
-7.28306e-11
-7.28306e-11
-1.58318e-09
1.73195e-11
-8.21565e-11
-3.41949e-11
-1.40332e-10
-2.05613e-10
-6.66134e-11
-7.28306e-11
-1.94511e-10
0
8.61533e-11
-3.73035e-11
-2.26485e-11
-7.41629e-11
-2.93099e-11
-1.44329e-10
-1.44329e-10
-1.33671e-10
1.33227e-12
-9.32587e-12
1.28786e-11
9.32587e-12
1.02141e-11
-2.9754e-11
0
1.90958e-11
0
-1.33227e-12
-3.9968e-12
0
-9.32587e-12
-3.68594e-11
1.82077e-11
8.43769e-12
3.55271e-12
3.10862e-11
2.84217e-11
-5.32907e-12
4.88498e-11
-4.66294e-11
0
1.68754e-11
-3.10862e-11
0
8.43769e-12
-6.30607e-11
1.73195e-11
-4.52971e-11
-2.39808e-11
-3.86358e-11
4.88498e-12
-2.9754e-11
0
3.10862e-11
-5.68434e-11
-1.82077e-11
0
2.26485e-11
0
1.06581e-11
3.55271e-12
1.02141e-11
1.77636e-11
3.37508e-11
8.39329e-11
6.26166e-11
-3.9968e-12
-7.32747e-11
4.26326e-11
6.70575e-11
1.28786e-11
1.77636e-11
-3.90799e-11
-2.22045e-11
6.79456e-11
2.39808e-11
7.63833e-11
-4.44089e-13
-2.57572e-11
-7.68274e-11
-1.02141e-11
5.19584e-11
5.24025e-11
-7.99361e-12
1.82077e-11
7.68274e-11
-4.21885e-11
-7.32747e-11
3.9968e-12
6.70575e-11
2.22045e-12
-3.9968e-12
0
3.95239e-11
-6.30607e-11
-6.30607e-11
4.4853e-11
-1.11022e-11
4.4853e-11
4.4853e-11
3.10862e-12
5.9952e-11
-6.66134e-11
3.19744e-11
-1.55431e-11
-2.39808e-11
-4.21885e-11
1.11022e-11
-1.02141e-11
1.68754e-11
0
-1.15463e-11
5.68434e-11
1.46549e-11
1.37668e-11
-7.99361e-12
1.44329e-10
-1.39444e-10
2.39808e-11
4.44089e-12
-4.35207e-11
1.02141e-11
-4.66294e-11
4.44089e-13
0
-2.70894e-11
2.57572e-11
1.1724e-10
0
-2.39808e-11
1.11022e-11
7.10543e-12
-3.9968e-11
3.9968e-12
0
-6.30607e-11
0
-1.02141e-11
-4.44089e-11
-5.90639e-11
-4.44089e-11
-4.57412e-11
-6.66134e-11
1.06581e-11
-6.57252e-11
0
0
-6.70575e-11
4.44089e-13
0
0
0
-4.44089e-13
0
0
0
4.66294e-11
-4.4853e-11
0
1.11022e-11
-1.77636e-12
-4.44089e-13
-3.41949e-11
5.37348e-11
0
4.44089e-13
0
4.52971e-11
0
0
-4.4853e-11
-4.66294e-11
-6.79456e-11
4.13003e-11
-8.21565e-11
0
0
-7.54952e-12
0
4.44089e-13
2.22045e-11
-3.9968e-12
-5.77316e-12
1.11022e-11
-7.99361e-12
0
-1.73195e-11
2.4869e-11
-1.77636e-11
4.52971e-11
-2.79776e-11
4.88498e-11
2.66454e-11
-4.84057e-11
-7.41629e-11
-4.92939e-11
4.52971e-11
-5.59552e-11
4.52971e-11
0
0
0
0
-7.99361e-12
0
0
0
6.26166e-11
0
8.88178e-13
-5.10703e-11
8.88178e-13
-4.44089e-13
4.44089e-11
1.77636e-12
0
0
1.55431e-11
-2.75335e-11
0
-2.35367e-11
-2.04281e-11
1.33227e-11
2.93099e-11
-1.68754e-11
3.9968e-12
1.22569e-10
-1.35447e-10
1.23013e-10
3.9968e-12
-7.10543e-12
-1.68754e-11
1.33227e-11
2.53131e-11
-2.70894e-11
1.37668e-11
-6.66134e-11
4.88498e-12
1.9984e-11
0
-2.22045e-11
1.28786e-11
5.86198e-11
-3.37508e-11
-7.99361e-12
0
-1.73195e-11
4.04121e-11
-6.30607e-11
-3.81917e-11
-1.06581e-11
2.53131e-11
-2.66454e-11
-3.06422e-11
-1.90958e-11
1.9984e-11
2.79776e-11
-1.82077e-11
-4.88498e-11
2.75335e-11
-3.06422e-11
-3.19744e-11
5.01821e-11
-2.53131e-11
-8.39329e-11
-6.30607e-11
2.26485e-11
7.59393e-11
-2.39808e-11
-8.4821e-11
1.11022e-11
1.24345e-11
8.88178e-13
3.55271e-11
-6.75016e-11
-8.65974e-11
-5.90639e-11
-4.88498e-12
-6.08402e-11
6.26166e-11
-1.68754e-11
-7.4607e-11
-4.79616e-11
-1.24345e-11
-7.59393e-11
0
-3.81917e-11
2.9754e-11
-2.22045e-11
-2.17604e-11
-5.81757e-11
3.55271e-12
-1.82077e-11
-2.75335e-11
1.11022e-11
5.77316e-11
-2.22045e-11
-5.63993e-11
-2.22045e-11
-3.28626e-11
5.06262e-11
-8.88178e-13
0
-7.32747e-11
-6.75016e-11
4.44089e-13
0
-4.44089e-11
5.90639e-11
-8.88178e-13
2.4869e-11
-4.13003e-11
-1.77636e-11
-3.64153e-11
-1.86517e-11
-1.95399e-11
-1.77636e-12
1.5099e-11
1.18128e-10
-3.10862e-12
0
8.88178e-13
3.64153e-11
-4.57412e-11
1.11022e-11
0
1.05693e-10
-1.16351e-10
-1.2168e-10
-3.9968e-12
-1.06581e-11
2.93099e-11
3.55271e-11
6.21725e-12
2.22045e-11
4.44089e-13
1.9984e-11
0
3.86358e-11
-1.77636e-11
3.4639e-11
3.64153e-11
6.21725e-12
0
0
-6.88338e-11
0
0
1.77636e-11
6.26166e-11
-5.01821e-11
-2.93099e-11
4.44089e-13
-4.44089e-13
4.44089e-13
7.68274e-11
-4.66294e-11
0
8.43769e-11
3.59712e-11
7.37188e-11
7.14984e-11
7.99361e-12
0
0
1.77636e-11
0
4.44089e-13
1.77636e-11
6.30607e-11
7.28306e-11
4.44089e-13
4.44089e-13
1.46549e-11
0
1.77636e-11
4.57412e-11
-2.79776e-11
3.81917e-11
-2.08722e-11
3.9968e-11
3.41949e-11
7.99361e-12
0
0
6.26166e-11
0
-4.52971e-11
0
0
3.68594e-11
0
4.44089e-13
4.66294e-11
7.99361e-12
0
-4.52971e-11
0
0
6.30607e-11
-1.11022e-11
-4.39648e-11
6.21725e-12
-1.28786e-11
0
6.26166e-11
4.57412e-11
-1.90958e-11
1.77636e-11
-2.04281e-11
3.73035e-11
3.64153e-11
6.21725e-12
0
0
0
-4.44089e-13
0
2.75335e-11
4.44089e-13
4.35207e-11
4.35207e-11
3.9968e-12
-5.77316e-12
6.79456e-11
-2.26485e-11
2.22045e-12
1.34559e-10
-1.15463e-10
1.1724e-10
6.21725e-11
3.73035e-11
-2.84217e-11
-2.57572e-11
7.10543e-11
7.99361e-12
8.17124e-11
1.06581e-11
-1.55431e-11
4.39648e-11
9.76996e-12
-2.93099e-11
-6.21725e-12
5.37348e-11
7.37188e-11
8.43769e-11
3.77476e-11
4.44089e-12
1.73195e-11
1.82077e-11
2.93099e-11
-2.44249e-11
4.39648e-11
3.95239e-11
1.77636e-12
-7.72715e-11
-6.83897e-11
-5.63993e-11
2.70894e-11
-6.83897e-11
5.50671e-11
5.15143e-11
-1.42109e-11
-2.66454e-11
6.75016e-11
7.63833e-11
-4.30767e-11
-6.9722e-11
1.95399e-11
3.81917e-11
1.06581e-11
6.21725e-12
7.4607e-11
-7.23865e-11
8.26006e-11
6.61693e-11
1.9984e-11
-5.15143e-11
3.81917e-11
-2.4869e-11
1.64313e-11
5.10703e-11
2.22045e-12
3.24185e-11
0
-2.75335e-11
1.77636e-11
-2.30926e-11
-1.77636e-12
-2.4869e-11
8.08242e-11
1.42109e-11
1.86517e-11
-3.95239e-11
-9.76996e-12
-5.10703e-11
-3.37508e-11
6.9722e-11
-3.37508e-11
-5.77316e-12
-2.17604e-11
-1.9984e-11
7.54952e-12
5.32907e-11
7.99361e-12
-1.42109e-11
2.44249e-11
-2.26485e-11
-5.90639e-11
-1.73195e-11
-4.26326e-11
-3.10862e-12
-4.4853e-11
1.64313e-11
0
1.95399e-11
-1.42109e-10
-5.77316e-12
0
-1.68754e-11
-7.54952e-12
-2.22045e-12
3.77476e-11
0
0
1.42553e-10
0
0
1.11022e-10
0
2.35367e-11
-3.24185e-11
3.4639e-11
0
8.88178e-13
8.65974e-11
0
0
-5.28466e-11
0
4.66294e-11
4.39648e-11
-5.77316e-12
-2.04281e-11
0
-1.73195e-11
0
0
-1.73195e-11
-6.30607e-11
1.19904e-11
1.02141e-11
3.15303e-11
0
6.08402e-11
-7.68274e-11
4.75175e-11
4.4853e-11
-6.79456e-11
-3.5083e-11
-4.13003e-11
-3.55271e-11
-7.99361e-12
-2.22045e-11
0
-1.73195e-11
6.08402e-11
0
4.35207e-11
-6.30607e-11
8.43769e-12
8.03801e-11
4.44089e-13
-5.59552e-11
0
4.52971e-11
4.44089e-13
4.44089e-13
-2.08722e-11
0
-2.79776e-11
8.43769e-12
-4.44089e-13
4.26326e-11
8.43769e-12
-2.4869e-11
0
4.52971e-11
1.77636e-11
4.44089e-13
-2.66454e-12
-3.55271e-12
-4.52971e-11
-3.86358e-11
1.37668e-11
0
4.35207e-11
-4.44089e-13
1.42109e-11
2.35367e-11
5.77316e-12
4.13003e-11
-5.77316e-12
2.04281e-11
0
-4.4853e-11
-4.57412e-11
1.59872e-11
3.10862e-11
-4.21885e-11
-3.55271e-11
-3.55271e-11
3.90799e-11
-2.26485e-11
-1.77636e-12
2.70894e-11
1.42553e-10
7.54952e-12
-1.77636e-12
-6.66134e-12
-8.43769e-11
1.6307e-09
-1.33227e-11
3.64153e-11
-4.04121e-11
1.39444e-10
-1.16795e-10
4.44089e-13
-1.33227e-12
-1.08802e-10
1.60183e-09
1.68399e-09
1.82077e-11
3.41949e-11
0
1.90958e-11
-1.46549e-11
7.99361e-12
-7.99361e-12
4.44089e-12
1.60583e-09
1.65423e-09
-3.86358e-11
3.24185e-11
-4.88498e-12
-2.17604e-11
2.93099e-11
-7.99361e-12
7.28306e-11
4.52971e-11
1.66533e-09
1.63913e-09
1.33227e-12
-3.33067e-11
1.26565e-10
5.41789e-11
1.98064e-10
5.77316e-11
6.43929e-11
7.77156e-11
1.6076e-09
1.61915e-09
-3.01981e-11
3.24185e-11
-4.44089e-13
-1.37668e-11
4.52971e-11
4.75175e-11
9.32587e-12
2.4869e-11
1.65556e-09
1.63203e-09
-5.28466e-11
3.59712e-11
1.33227e-12
-3.10862e-12
2.4869e-11
6.75016e-11
2.93099e-11
4.61853e-11
1.66978e-09
1.61604e-09
1.42109e-11
3.19744e-11
8.83738e-11
3.5083e-11
7.28306e-11
7.54952e-11
2.30926e-11
2.44249e-11
1.63158e-09
1.66267e-09
-1.59872e-11
5.50671e-11
8.39329e-11
6.75016e-11
6.70575e-11
-7.10543e-12
7.50511e-11
3.4639e-11
1.60183e-09
1.65556e-09
1.42109e-11
4.30767e-11
7.59393e-11
3.5083e-11
8.88178e-13
1.9007e-10
7.10543e-11
8.39329e-11
1.56941e-09
1.71863e-09
7.4607e-11
3.41949e-11
1.86517e-11
1.26121e-10
2.62013e-11
1.33227e-11
3.55271e-12
1.42109e-10
-4.04121e-11
1.66489e-09
-3.68594e-11
7.32747e-11
1.59872e-11
2.22045e-12
-1.04361e-10
1.17684e-10
-1.05249e-10
3.59712e-11
1.6338e-09
1.71552e-09
-4.17444e-11
2.22045e-12
4.92939e-11
3.9968e-12
-1.37668e-11
1.90958e-11
3.5083e-11
8.70415e-11
1.57918e-09
1.59073e-09
2.22045e-11
8.43769e-11
6.83897e-11
6.30607e-11
4.92939e-11
4.52971e-11
9.01501e-11
6.30607e-11
1.69909e-09
1.6338e-09
5.32907e-12
1.42109e-11
5.37348e-11
6.30607e-11
1.23013e-10
8.88178e-13
7.28306e-11
3.77476e-11
1.63025e-09
1.63425e-09
2.22045e-11
4.88498e-12
6.66134e-11
6.30607e-11
2.22045e-12
4.44089e-13
2.9754e-11
6.30607e-11
1.62981e-09
1.60361e-09
2.22045e-11
4.17444e-11
8.43769e-11
0
0
3.37508e-11
4.92939e-11
4.17444e-11
1.65201e-09
1.59339e-09
1.55431e-11
2.17604e-11
8.79297e-11
4.57412e-11
9.01501e-11
2.70894e-11
6.61693e-11
4.44089e-13
1.65601e-09
1.66889e-09
2.04281e-11
5.4623e-11
7.54952e-11
4.44089e-11
2.22045e-11
6.12843e-11
1.33227e-11
-1.95399e-11
1.58584e-09
1.63958e-09
2.22045e-11
5.4623e-11
8.43769e-11
6.61693e-11
4.52971e-11
1.28786e-10
3.90799e-11
8.39329e-11
1.57563e-09
1.72662e-09
2.93099e-11
7.99361e-12
1.86517e-11
1.18572e-10
-1.16351e-10
0
1.19904e-10
1.25233e-10
-1.15019e-10
-1.30118e-10
-1.17684e-10
-2.22045e-12
-1.20348e-10
3.9968e-12
-1.42553e-10
-1.15019e-10
-1.17684e-10
-3.77476e-11
-8.03801e-11
-6.66134e-12
-3.5083e-11
-1.33227e-12
-2.22045e-11
-1.25233e-10
-6.66134e-12
-2.22045e-11
-1.33227e-12
-9.4591e-11
-5.24025e-11
-8.79297e-11
-2.04281e-11
-7.9492e-11
-2.04281e-11
-1.15907e-10
6.21725e-12
-2.04281e-11
-7.9492e-11
3.55271e-12
-8.12683e-11
-9.05942e-11
-1.5854e-10
-1.01252e-10
-1.54543e-10
3.55271e-12
-1.25233e-10
-1.95399e-11
-3.37508e-11
-3.9968e-11
-5.06262e-11
-1.33227e-10
-2.22045e-11
-5.24025e-11
-1.94067e-10
-1.33227e-12
-5.24025e-11
-2.22045e-11
-3.28626e-11
-1.15907e-10
-4.44089e-13
-4.66294e-11
-1.4122e-10
-1.55431e-11
4.44089e-13
-1.15019e-10
-2.66454e-11
-1.4122e-10
-8.9706e-11
3.10862e-12
-1.7053e-10
-8.43769e-11
-2.22045e-11
-3.41949e-11
-1.82077e-11
-1.33227e-12
-3.41949e-11
-1.33227e-12
-2.70894e-11
-1.59872e-10
-2.22045e-12
-4.92939e-11
-2.39808e-11
-1.18572e-10
-7.54952e-12
-1.1946e-10
-4.92939e-11
-7.54952e-12
-4.92939e-11
-7.54952e-12
-1.64313e-11
-1.63425e-10
-2.22045e-11
-1.31894e-10
-1.2168e-10
-1.15019e-10
-1.47438e-10
-1.33227e-12
-8.52651e-11
-1.16795e-10
-1.27454e-10
-1.20348e-10
-1.33227e-12
-1.30118e-10
-1.20348e-10
-1.21236e-10
-1.30118e-10
-1.33227e-12
-1.95399e-11
-4.88498e-12
-1.12799e-10
-1.21236e-10
-1.18128e-10
-1.17684e-10
-4.44089e-13
-1.19016e-10
-8.88178e-12
-1.16795e-10
-1.17684e-10
-5.77316e-12
-4.44089e-13
-3.77476e-11
-2.17604e-11
-7.9492e-11
-1.33227e-12
-1.19904e-10
-2.84217e-11
-2.22045e-11
-8.9706e-11
-8.34888e-11
-5.32907e-12
-3.77476e-11
-7.81597e-11
-1.59872e-11
-4.84057e-11
-1.65645e-10
-6.21725e-11
-3.9968e-12
-1.59872e-11
-4.66294e-11
-8.21565e-11
-9.76996e-12
-1.50546e-10
-4.39648e-11
-1.2168e-10
-1.33227e-12
-1.24789e-10
-2.39808e-11
-3.37508e-11
-6.92779e-11
-1.19904e-11
-1.20792e-10
-7.10543e-11
-1.06581e-11
-1.90514e-10
-7.23865e-11
-1.06581e-11
-7.10543e-11
-1.59872e-11
-1.86073e-10
2.04281e-11
-7.86038e-11
-1.5854e-10
-9.32587e-12
-3.81917e-11
-1.65645e-10
-6.75016e-11
-1.19904e-10
-7.9492e-11
-3.59712e-11
-1.7053e-10
-5.55112e-11
-5.06262e-11
-5.72875e-11
-7.10543e-11
-5.19584e-11
-1.06581e-11
-5.06262e-11
-7.28306e-11
-1.85629e-10
-1.28786e-11
-3.9968e-12
-6.17284e-11
-1.31894e-10
-1.86517e-11
-1.92735e-10
-1.02141e-11
-5.81757e-11
1.90958e-11
-1.86517e-11
-4.44089e-11
-1.24789e-10
-5.06262e-11
-2.05169e-10
-1.90958e-10
-2.03837e-10
-1.56319e-10
-5.06262e-11
-3.9968e-12
-1.65201e-10
-1.42553e-10
-1.45661e-10
-1.42553e-10
-1.44329e-10
-1.1946e-10
-1.40776e-10
-1.44329e-10
-1.42553e-10
-4.75175e-11
-1.16795e-10
1.33227e-12
1.02141e-11
-3.9968e-12
-1.04805e-10
-3.9968e-12
-1.17684e-10
1.38112e-10
1.33227e-12
4.44089e-13
-8.70415e-11
6.26166e-11
-7.37188e-11
-8.43769e-12
-8.92619e-11
-1.73195e-11
-7.32747e-11
6.21725e-12
2.30926e-11
-7.90479e-11
1.15463e-11
2.84217e-11
2.79776e-11
-1.37668e-11
4.66294e-11
1.5099e-11
-2.08722e-11
-1.02141e-11
0
7.90479e-11
-1.06581e-11
3.59712e-11
6.03961e-11
-1.24345e-11
8.08242e-11
-3.9968e-12
-3.86358e-11
-2.39808e-11
-3.86358e-11
3.9968e-12
4.4853e-11
-2.9754e-11
-5.06262e-11
-5.81757e-11
4.70735e-11
5.59552e-11
-7.86038e-11
-3.33067e-11
-5.81757e-11
-4.66294e-11
2.22045e-12
-2.84217e-11
-4.13003e-11
-4.04121e-11
-1.11022e-11
-5.77316e-12
-2.08722e-11
3.5083e-11
0
7.37188e-11
-4.88498e-12
-2.9754e-11
7.99361e-11
-5.81757e-11
1.02141e-11
4.44089e-13
-1.59872e-11
-3.37508e-11
-1.59872e-11
6.21725e-12
2.66454e-11
0
3.10862e-11
3.68594e-11
-3.77476e-11
-1.11022e-11
-5.50671e-11
0
-6.61693e-11
0
-4.9738e-11
-1.77636e-11
0
-2.17604e-11
1.28786e-11
-4.30767e-11
-1.59872e-11
2.30926e-11
-7.90479e-11
8.92619e-11
-4.26326e-11
-1.46549e-11
1.77636e-12
-1.40776e-10
2.22045e-12
4.44089e-13
3.9968e-12
1.27898e-10
-1.18128e-10
0
3.9968e-12
-7.99361e-12
-2.4869e-11
2.22045e-12
0
-1.19904e-10
1.1946e-10
0
2.66454e-12
0
4.44089e-13
-2.17604e-11
4.44089e-11
2.17604e-11
1.77636e-11
0
0
6.21725e-12
2.13163e-11
1.77636e-11
-3.90799e-11
-6.70575e-11
3.81917e-11
4.04121e-11
0
-2.04281e-11
-2.04281e-11
1.82077e-11
-7.41629e-11
8.88178e-13
-2.04281e-11
6.26166e-11
-7.06102e-11
3.68594e-11
2.75335e-11
-5.55112e-11
-5.77316e-11
-7.06102e-11
-5.77316e-11
-6.21725e-12
0
-1.37668e-11
0
4.52971e-11
0
4.52971e-11
4.4853e-11
0
-1.77636e-11
0
4.4853e-11
-4.92939e-11
1.77636e-11
3.64153e-11
5.32907e-12
3.64153e-11
2.26485e-11
7.06102e-11
-4.92939e-11
1.77636e-11
3.55271e-11
2.4869e-11
5.28466e-11
2.4869e-11
5.28466e-11
-4.44089e-13
-2.08722e-11
6.66134e-12
2.44249e-11
5.28466e-11
0
-5.63993e-11
-4.52971e-11
0
7.10543e-12
0
-8.88178e-13
0
5.15143e-11
-2.53131e-11
0
4.84057e-11
-3.86358e-11
4.84057e-11
0
6.92779e-11
7.41629e-11
0
4.88498e-11
-3.86358e-11
4.84057e-11
2.30926e-11
2.22045e-11
1.55431e-11
2.22045e-11
-7.99361e-12
1.40332e-10
2.22045e-11
2.30926e-11
2.17604e-11
-7.99361e-12
-2.30926e-11
-1.77636e-12
1.22569e-10
-2.30926e-11
1.77636e-12
1.1724e-10
-1.27898e-10
1.16795e-10
-4.44089e-13
-4.44089e-13
5.77316e-12
8.61533e-11
4.26326e-11
5.68434e-11
3.90799e-11
7.86038e-11
-4.84057e-11
-2.22045e-12
7.59393e-11
-2.13163e-11
0
-1.77636e-11
1.37668e-11
-4.66294e-11
-7.28306e-11
1.02141e-11
-5.9508e-11
2.17604e-11
-7.99361e-11
7.99361e-12
2.13163e-11
1.37668e-11
-6.21725e-12
-8.08242e-11
-3.59712e-11
5.01821e-11
-1.46549e-11
3.4639e-11
1.33227e-11
-5.72875e-11
7.59393e-11
6.39488e-11
7.37188e-11
-3.10862e-12
-2.22045e-11
9.32587e-12
7.41629e-11
2.9754e-11
6.39488e-11
-5.15143e-11
-2.93099e-11
5.68434e-11
6.30607e-11
2.17604e-11
-3.33067e-11
-2.84217e-11
-7.63833e-11
-5.77316e-11
-1.68754e-11
-3.33067e-11
2.9754e-11
0
6.26166e-11
2.30926e-11
1.33227e-11
-5.32907e-11
6.26166e-11
-3.28626e-11
0
-7.99361e-12
-6.70575e-11
3.73035e-11
-6.30607e-11
1.11022e-11
-5.59552e-11
-1.68754e-11
6.61693e-11
7.01661e-11
6.30607e-11
4.9738e-11
0
3.86358e-11
0
-2.9754e-11
-7.10543e-12
-5.41789e-11
6.66134e-12
3.9968e-11
-8.88178e-12
-7.10543e-12
1.55431e-11
0
1.39444e-10
-6.66134e-12
1.17684e-10
-2.35367e-11
-1.42553e-10
-7.10543e-12
-2.66454e-11
-1.40332e-10
4.44089e-13
2.4869e-11
0
0
1.20348e-10
0
-1.23013e-10
0
0
-1.18572e-10
2.08722e-11
-1.24345e-11
-2.13163e-11
2.88658e-11
0
0
-2.39808e-11
-2.13163e-11
6.88338e-11
1.77636e-11
5.90639e-11
-9.32587e-12
-1.06581e-11
-1.33227e-11
6.66134e-11
4.30767e-11
5.15143e-11
6.26166e-11
6.21725e-12
6.70575e-11
-5.32907e-11
7.54952e-12
-1.82077e-11
-2.35367e-11
5.59552e-11
6.21725e-11
5.10703e-11
-4.44089e-13
-3.28626e-11
-6.21725e-12
-4.4853e-11
-4.61853e-11
3.9968e-12
-4.08562e-11
-1.42109e-11
2.30926e-11
6.66134e-12
6.26166e-11
-4.61853e-11
-2.44249e-11
1.11022e-11
1.42109e-11
-4.04121e-11
-3.5083e-11
-5.86198e-11
-6.08402e-11
-3.86358e-11
-2.93099e-11
2.30926e-11
2.66454e-12
-4.52971e-11
-3.81917e-11
-5.37348e-11
-2.93099e-11
3.15303e-11
-1.77636e-11
-3.81917e-11
-4.52971e-11
-3.81917e-11
2.04281e-11
0
3.15303e-11
1.11022e-11
-3.10862e-11
-5.63993e-11
0
2.39808e-11
0
1.5099e-11
1.06581e-11
0
4.39648e-11
-3.77476e-11
5.68434e-11
-4.79616e-11
7.10543e-12
1.82077e-11
-6.88338e-11
1.5099e-11
-2.30926e-11
-7.99361e-12
4.44089e-12
7.99361e-12
4.88498e-12
-1.5099e-11
-1.40332e-10
4.88498e-12
-7.99361e-12
4.88498e-12
1.24789e-10
1.73195e-11
-5.32907e-12
-1.06581e-11
-1.42109e-11
1.33227e-12
-3.9968e-12
4.88498e-12
-1.17684e-10
-7.10543e-12
3.10862e-12
5.32907e-12
-9.76996e-12
2.22045e-12
-5.68434e-11
0
-5.32907e-12
4.39648e-11
-4.88498e-12
-4.84057e-11
2.17604e-11
4.88498e-12
-1.02141e-11
4.44089e-12
4.70735e-11
6.26166e-11
1.28786e-11
6.92779e-11
-5.55112e-11
7.06102e-11
-1.33227e-11
1.59872e-11
-2.53131e-11
6.35048e-11
4.92939e-11
8.12683e-11
-4.92939e-11
-2.44249e-11
-3.37508e-11
-5.63993e-11
4.44089e-11
-6.9722e-11
-1.15463e-11
-5.59552e-11
-7.72715e-11
-3.33067e-11
5.41789e-11
-2.30926e-11
4.9738e-11
-3.59712e-11
4.44089e-11
8.08242e-11
2.93099e-11
-1.82077e-11
-3.9968e-12
4.13003e-11
-5.77316e-12
2.35367e-11
2.30926e-11
2.35367e-11
-4.04121e-11
-2.30926e-11
-4.26326e-11
-4.4853e-11
-4.66294e-11
-7.01661e-11
1.46549e-11
-6.66134e-12
4.92939e-11
7.10543e-12
7.99361e-12
0
-2.57572e-11
5.01821e-11
-4.30767e-11
4.26326e-11
6.12843e-11
-6.70575e-11
4.88498e-12
-6.26166e-11
-2.44249e-11
4.08562e-11
-1.77636e-11
2.70894e-11
-1.46549e-11
5.15143e-11
6.61693e-11
-2.93099e-11
-1.64313e-11
-3.86358e-11
-2.9754e-11
-6.21725e-12
-2.66454e-11
0
-1.02141e-11
-3.64153e-11
1.40332e-10
2.22045e-11
1.24345e-10
1.9984e-11
1.40332e-10
0
1.16795e-10
-4.44089e-13
-4.88498e-12
0
0
-4.44089e-12
0
-4.88498e-12
4.44089e-13
-2.13163e-11
1.24345e-11
0
-2.88658e-11
-5.77316e-12
-4.44089e-13
2.44249e-11
-8.88178e-13
-6.83897e-11
-1.82077e-11
-3.90799e-11
-6.9722e-11
0
1.90958e-11
-4.66294e-11
-6.08402e-11
-6.88338e-11
0
-7.06102e-11
-4.70735e-11
-4.44089e-13
-1.73195e-11
-6.30607e-11
2.53131e-11
-8.88178e-13
-4.44089e-13
2.57572e-11
-4.44089e-13
4.52971e-11
0
0
4.61853e-11
-5.77316e-11
4.44089e-11
3.55271e-11
-2.62013e-11
-6.21725e-12
0
4.61853e-11
2.44249e-11
0
1.5099e-11
0
-3.59712e-11
2.22045e-11
6.30607e-11
1.46549e-11
0
1.90958e-11
-1.02141e-11
-1.82077e-11
3.81917e-11
5.77316e-11
3.33067e-11
-4.88498e-11
8.65974e-11
3.81917e-11
-1.77636e-11
3.86358e-11
3.9968e-12
0
-4.88498e-11
0
-4.88498e-11
1.68754e-11
0
-2.93099e-11
0
-3.4639e-11
-3.73035e-11
-6.88338e-11
-5.32907e-12
2.17604e-11
2.70894e-11
-2.04281e-11
-7.99361e-11
1.9984e-11
3.10862e-11
2.70894e-11
-6.30607e-11
-1.95399e-11
0
-1.77636e-12
-1.64313e-11
2.26485e-11
1.38112e-10
-2.70894e-11
-1.95399e-11
-2.70894e-11
-1.23901e-10
1.42109e-11
7.54952e-12
1.33227e-11
4.66294e-11
1.21236e-10
3.9968e-12
1.25233e-10
1.19904e-10
2.70894e-11
1.1946e-10
1.2701e-10
1.2923e-10
-8.88178e-13
7.99361e-11
1.15463e-10
1.26565e-10
1.28786e-11
7.10543e-12
2.88658e-11
8.88178e-13
-3.9968e-12
1.93623e-10
-3.9968e-12
7.10543e-12
-3.9968e-12
1.16351e-10
1.16351e-10
3.5083e-11
1.14575e-10
-3.9968e-12
8.43769e-12
3.95239e-11
1.33227e-12
3.06422e-11
-2.13163e-11
5.77316e-11
6.17284e-11
3.5083e-11
1.8785e-10
1.02141e-11
4.79616e-11
1.31894e-10
5.9952e-11
2.01172e-10
6.75016e-11
1.33227e-11
1.42997e-10
-2.44249e-11
1.56319e-10
-1.95399e-11
-7.10543e-12
-3.10862e-12
1.36779e-10
4.44089e-12
1.17684e-10
1.72751e-10
1.72751e-10
5.68434e-11
4.44089e-12
5.86198e-11
4.84057e-11
1.67866e-10
6.21725e-11
1.67866e-10
5.28466e-11
1.72751e-10
1.02141e-11
-2.44249e-11
1.17684e-10
1.36335e-10
6.21725e-11
6.21725e-12
1.3145e-10
4.92939e-11
1.50102e-10
9.50351e-11
7.23865e-11
-4.44089e-13
7.10543e-11
1.02141e-11
1.15907e-10
0
1.36779e-10
2.08722e-11
-3.55271e-12
1.64313e-11
1.19904e-11
5.81757e-11
2.08722e-11
5.86198e-11
1.37668e-11
1.44329e-10
-1.18128e-10
1.42109e-10
3.68594e-11
-1.18128e-10
5.77316e-12
-1.16795e-10
1.24789e-10
8.88178e-13
1.64313e-11
-1.15019e-10
1.21236e-10
2.53131e-11
1.33227e-12
3.9968e-12
1.34115e-10
1.21236e-10
2.53131e-11
1.23013e-10
1.42109e-10
1.19016e-10
2.22045e-11
5.19584e-11
1.2168e-10
1.21236e-10
3.33067e-11
2.22045e-11
4.92939e-11
3.9968e-11
2.88658e-11
1.84741e-10
2.88658e-11
-1.77636e-11
2.88658e-11
2.05169e-10
1.86073e-10
-3.55271e-12
1.83853e-10
2.88658e-11
7.28306e-11
8.83738e-11
8.12683e-11
-6.21725e-12
-1.5099e-11
1.95399e-11
-6.21725e-12
5.90639e-11
1.42553e-10
7.77156e-11
4.52971e-11
1.20348e-10
7.81597e-11
1.23457e-10
-1.77636e-12
2.26485e-11
1.20348e-10
0
1.20348e-10
4.44089e-13
3.37508e-11
2.75335e-11
1.62537e-10
7.01661e-11
1.5854e-10
1.42997e-10
1.48326e-10
7.99361e-11
1.5099e-11
-8.88178e-12
6.30607e-11
1.24789e-10
2.22045e-11
1.20792e-10
6.79456e-11
1.1946e-10
3.55271e-12
6.30607e-11
1.24789e-10
1.65201e-10
6.12843e-11
6.70575e-11
1.80744e-10
6.70575e-11
1.75415e-10
1.55875e-10
3.86358e-11
4.88498e-12
4.61853e-11
2.26485e-11
1.8785e-10
-1.73195e-11
1.35891e-10
-2.08722e-11
6.92779e-11
1.00808e-10
-1.73195e-11
4.13003e-11
-2.08722e-11
6.70575e-11
2.70894e-11
1.17684e-10
8.88178e-13
1.32339e-10
1.17684e-10
-1.15907e-10
2.70894e-11
2.70894e-11
1.44329e-10
1.24345e-10
-1.15019e-10
-1.15019e-10
-1.21236e-10
-1.15019e-10
-1.15019e-10
-1.19904e-10
-1.15019e-10
-1.19016e-10
-1.15019e-10
1.15463e-10
-7.99361e-11
-2.26485e-11
-3.86358e-11
-2.22045e-11
-2.26485e-11
-3.4639e-11
-2.22045e-11
-3.90799e-11
-7.10543e-11
3.55271e-12
-1.33227e-12
-9.01501e-11
-3.28626e-11
-3.9968e-11
-3.9968e-11
-1.33227e-12
-3.9968e-11
-4.61853e-11
-3.9968e-11
-1.1724e-10
-1.86517e-11
-1.86517e-11
-3.41949e-11
3.55271e-12
3.55271e-12
-1.35891e-10
9.76996e-12
-1.66089e-10
9.32587e-12
-1.37224e-10
-3.90799e-11
-1.47438e-10
-3.28626e-11
-1.59428e-10
-1.59428e-10
-1.20792e-10
-1.59428e-10
-4.44089e-11
-1.59428e-10
-1.31006e-10
-2.22045e-11
3.55271e-12
-2.30926e-11
-1.42109e-10
-1.42109e-10
-1.21236e-10
-1.42109e-10
-1.06581e-10
-1.21236e-10
-1.33227e-12
-2.22045e-11
-2.35367e-11
-4.92939e-11
-2.04281e-11
-2.04281e-11
-1.21236e-10
-2.04281e-11
-1.20348e-10
-1.64313e-11
-2.66454e-12
1.15463e-11
-2.22045e-11
-3.28626e-11
8.88178e-13
-1.08802e-10
-3.9968e-11
4.44089e-13
-3.28626e-11
3.55271e-12
-4.44089e-12
-8.88178e-13
3.55271e-12
-4.70735e-11
-1.42109e-10
-1.42109e-10
-1.21236e-10
-1.42109e-10
-1.19904e-10
-1.42109e-10
-1.21236e-10
-2.22045e-12
-1.19904e-10
-1.31894e-10
-1.27454e-10
-1.27454e-10
-1.2701e-10
-1.27454e-10
-2.62013e-11
-1.27454e-10
1.20792e-10
-1.16795e-10
-1.40332e-10
-1.15907e-10
-1.16795e-10
5.32907e-12
-1.18572e-10
-1.16795e-10
-1.33671e-10
-1.16795e-10
1.15463e-10
-3.90799e-11
-1.33227e-12
-6.92779e-11
-3.9968e-11
-1.33227e-12
-3.68594e-11
-3.9968e-11
-3.9968e-12
-3.9968e-11
4.88498e-12
-3.9968e-12
-5.24025e-11
-1.33227e-12
-2.22045e-12
-5.06262e-11
-6.26166e-11
-5.06262e-11
1.64313e-11
-5.06262e-11
-1.20348e-10
-8.21565e-11
-2.4869e-11
-3.95239e-11
-5.86198e-11
-1.33227e-12
-1.56763e-10
-5.81757e-11
-1.60316e-10
-5.01821e-11
-1.24345e-11
-7.10543e-11
-1.90958e-10
-1.33227e-12
-1.90958e-10
-1.90958e-10
-1.90958e-10
-1.90958e-10
7.10543e-12
-1.90958e-10
-1.42553e-10
-3.95239e-11
-1.42109e-11
-1.28786e-11
-1.59872e-10
-1.59872e-10
-1.59872e-10
-1.59872e-10
-1.57208e-10
-1.21236e-10
-1.23457e-10
-1.15463e-11
-6.9722e-11
1.19904e-11
-9.32587e-12
-6.88338e-11
-1.7053e-10
-9.32587e-12
-1.1724e-10
-5.32907e-12
-1.4122e-10
8.88178e-12
-3.9968e-11
-7.99361e-11
1.33227e-12
-1.47882e-10
7.99361e-12
1.77636e-12
-7.10543e-12
-3.9968e-11
-1.3145e-10
-1.19904e-11
-4.57412e-11
8.43769e-12
-1.31894e-10
-1.91402e-10
-1.7053e-10
-1.31894e-10
-1.23901e-10
-1.7053e-10
-1.42553e-10
-1.42997e-10
-1.12355e-10
-5.32907e-12
-1.42553e-10
-1.19016e-10
-1.42997e-10
-1.42553e-10
1.15019e-10
-1.42553e-10
1.21236e-10
1.33227e-12
-2.08722e-11
8.88178e-13
1.33227e-12
-2.13163e-11
3.55271e-12
1.33227e-12
1.21236e-10
1.33227e-12
4.44089e-12
6.21725e-11
5.32907e-12
5.77316e-12
4.88498e-12
5.32907e-12
2.04281e-11
1.02141e-11
3.28626e-11
5.90639e-11
-1.16795e-10
-2.08722e-11
7.10543e-11
3.15303e-11
2.22045e-11
2.22045e-11
-3.68594e-11
2.26485e-11
6.12843e-11
2.26485e-11
1.20348e-10
-5.63993e-11
-2.17604e-11
-3.55271e-11
1.11022e-11
1.11022e-11
3.55271e-12
5.32907e-12
3.01981e-11
5.77316e-12
1.35003e-10
-3.9968e-11
1.02141e-11
3.15303e-11
-4.04121e-11
2.22045e-11
-1.59872e-11
-4.04121e-11
4.70735e-11
-4.04121e-11
1.19904e-11
2.08722e-11
1.37668e-11
-4.92939e-11
-4.88498e-11
4.88498e-12
-3.86358e-11
-1.59872e-11
-3.4639e-11
-6.9722e-11
-1.18572e-10
-5.77316e-11
3.9968e-12
2.35367e-11
2.08722e-11
0
-7.90479e-11
2.08722e-11
-3.64153e-11
2.08722e-11
-1.16351e-10
4.88498e-12
-5.72875e-11
-2.93099e-11
1.77636e-12
-2.9754e-11
-2.35367e-11
-4.66294e-11
3.10862e-11
1.77636e-12
-1.13687e-10
-3.4639e-11
1.37668e-11
-4.88498e-12
-4.92939e-11
4.88498e-12
-7.90479e-11
-1.59872e-11
-4.04121e-11
-4.92939e-11
8.88178e-13
-1.39888e-10
6.21725e-12
1.25677e-10
6.21725e-12
7.54952e-12
6.21725e-12
6.21725e-12
1.42109e-10
6.21725e-12
-4.44089e-13
2.66454e-12
2.70894e-11
0
2.66454e-12
-1.19904e-10
2.22045e-12
2.66454e-12
1.86517e-11
2.66454e-12
0
0
0
0
0
0
0
0
-5.68434e-11
3.59712e-11
0
-6.70575e-11
-2.04281e-11
1.77636e-12
-5.77316e-12
-2.04281e-11
4.04121e-11
-2.08722e-11
1.77636e-12
-2.08722e-11
-1.55431e-11
0
2.08722e-11
0
5.72875e-11
2.13163e-11
6.66134e-12
5.72875e-11
0
-4.44089e-13
0
4.4853e-11
0
-3.68594e-11
4.44089e-13
0
4.4853e-11
4.44089e-13
-3.68594e-11
4.44089e-13
0
-1.06581e-11
2.75335e-11
-7.37188e-11
-1.11022e-11
-1.11022e-11
-1.06581e-11
-1.06581e-11
2.44249e-11
-4.9738e-11
-3.9968e-12
-3.86358e-11
5.9508e-11
-7.10543e-12
-3.86358e-11
2.08722e-11
4.44089e-13
-3.86358e-11
-7.10543e-12
-3.86358e-11
2.30926e-11
0
3.55271e-11
6.43929e-11
-4.35207e-11
3.59712e-11
0
-4.35207e-11
-3.68594e-11
0
-4.44089e-12
-1.59872e-11
-1.77636e-11
4.44089e-13
-1.33227e-11
-1.77636e-11
4.88498e-11
-1.37668e-11
0
2.53131e-11
-4.44089e-12
1.9984e-11
1.1724e-10
0
1.90958e-11
1.1724e-10
1.90958e-11
1.90958e-11
0
1.90958e-11
-8.88178e-13
1.16795e-10
-4.44089e-12
1.55431e-11
-3.9968e-12
1.4122e-10
-3.10862e-12
-3.9968e-12
-1.2168e-10
-3.9968e-12
1.77636e-12
1.64313e-11
-7.19425e-11
2.30926e-11
1.64313e-11
-2.26485e-11
-4.88498e-12
1.11022e-11
2.66454e-12
1.06581e-11
-1.37668e-11
-1.77636e-11
1.37668e-11
0
1.64313e-11
1.37668e-11
-1.77636e-12
1.64313e-11
1.33227e-12
1.64313e-11
0
5.63993e-11
-3.9968e-11
6.70575e-11
-6.43929e-11
7.54952e-12
-3.55271e-12
-1.55431e-11
5.32907e-12
-6.43929e-11
4.44089e-13
7.59393e-11
-3.28626e-11
-3.9968e-12
5.19584e-11
-3.28626e-11
5.32907e-12
3.9968e-11
-8.21565e-11
3.9968e-11
-1.82077e-11
-3.10862e-12
4.88498e-12
4.88498e-12
6.88338e-11
1.33227e-11
-3.37508e-11
3.37508e-11
3.9968e-11
6.70575e-11
1.18128e-10
6.79456e-11
1.82077e-11
4.88498e-12
-1.33227e-12
1.77636e-11
6.21725e-11
-3.10862e-12
2.57572e-11
-3.10862e-12
1.19016e-10
-8.88178e-12
2.93099e-11
2.26485e-11
-1.82077e-11
-1.95399e-11
7.90479e-11
1.68754e-11
-7.9492e-11
-1.82077e-11
4.44089e-13
2.39808e-11
4.88498e-12
4.44089e-12
6.79456e-11
1.37668e-11
6.26166e-11
3.41949e-11
0
6.70575e-11
1.18128e-10
1.46549e-11
0
-1.18572e-10
1.06581e-10
-7.99361e-12
1.77636e-12
2.22045e-12
-1.15019e-10
2.22045e-12
0
1.19904e-10
-2.70894e-11
-9.76996e-12
1.20348e-10
1.19904e-10
1.20348e-10
1.20348e-10
1.17684e-10
1.20348e-10
6.21725e-12
0
0
6.88338e-11
0
0
0
0
6.21725e-11
0
-1.19904e-11
0
6.70575e-11
-1.9984e-11
-3.9968e-12
6.70575e-11
-4.88498e-11
5.90639e-11
-3.33067e-11
5.90639e-11
1.40776e-10