/*--------------------------------*- C++ -*----------------------------------*\
  =========                 |
  \\      /  F ield         | OpenFOAM: The Open Source CFD Toolbox
   \\    /   O peration     | Website:  https://openfoam.org
    \\  /    A nd           | Version:  10
     \\/     M anipulation  |
\*---------------------------------------------------------------------------*/
FoamFile
{
    format      ascii;
    class       volScalarField;
    location    "20";
    object      gradTx;
}
// * * * * * * * * * * * * * * * * * * * * * * * * * * * * * * * * * * * * * //

dimensions      [0 -1 0 1 0 0 0];

internalField   nonuniform List<scalar> 
375000
(
-0.791569
-0.791532
-0.791457
-0.791345
-0.791195
-0.791008
-0.790784
-0.790522
-0.790223
-0.789887
-0.789513
-0.789103
-0.788655
-0.78817
-0.787647
-0.787088
-0.786491
-0.785857
-0.785186
-0.784477
-0.783732
-0.78295
-0.782131
-0.781274
-0.780381
-0.779451
-0.778484
-0.77748
-0.77644
-0.775363
-0.774249
-0.773099
-0.771912
-0.770689
-0.769429
-0.768133
-0.766801
-0.765433
-0.764028
-0.762588
-0.761112
-0.759599
-0.758051
-0.756467
-0.754848
-0.753192
-0.751502
-0.749775
-0.748014
-0.746216
-0.791573
-0.791536
-0.791461
-0.791349
-0.7912
-0.791013
-0.790788
-0.790526
-0.790227
-0.789891
-0.789517
-0.789105
-0.788657
-0.788171
-0.787648
-0.787087
-0.78649
-0.785855
-0.785184
-0.784475
-0.783729
-0.782947
-0.782127
-0.781271
-0.780377
-0.779447
-0.77848
-0.777477
-0.776436
-0.77536
-0.774246
-0.773096
-0.77191
-0.770687
-0.769428
-0.768132
-0.7668
-0.765432
-0.764028
-0.762588
-0.761111
-0.759599
-0.758051
-0.756467
-0.754848
-0.753193
-0.751502
-0.749775
-0.748014
-0.746217
-0.79157
-0.791532
-0.791458
-0.791345
-0.791196
-0.791009
-0.790785
-0.790523
-0.790225
-0.789888
-0.789515
-0.789104
-0.788656
-0.788171
-0.787648
-0.787088
-0.786491
-0.785857
-0.785186
-0.784477
-0.783732
-0.782949
-0.78213
-0.781274
-0.78038
-0.77945
-0.778483
-0.777479
-0.776439
-0.775362
-0.774248
-0.773098
-0.771911
-0.770688
-0.769428
-0.768132
-0.7668
-0.765432
-0.764028
-0.762587
-0.761111
-0.759599
-0.758051
-0.756467
-0.754848
-0.753193
-0.751502
-0.749776
-0.748014
-0.746216
-0.791574
-0.791536
-0.791462
-0.79135
-0.7912
-0.791013
-0.790788
-0.790526
-0.790227
-0.789891
-0.789517
-0.789105
-0.788657
-0.788171
-0.787648
-0.787088
-0.78649
-0.785856
-0.785184
-0.784475
-0.783729
-0.782947
-0.782127
-0.781271
-0.780377
-0.779447
-0.77848
-0.777477
-0.776436
-0.77536
-0.774246
-0.773096
-0.77191
-0.770687
-0.769427
-0.768132
-0.7668
-0.765432
-0.764028
-0.762588
-0.761111
-0.759599
-0.758051
-0.756468
-0.754848
-0.753193
-0.751502
-0.749776
-0.748015
-0.746217
-0.791572
-0.791534
-0.791459
-0.791347
-0.791198
-0.791011
-0.790786
-0.790525
-0.790226
-0.789889
-0.789516
-0.789105
-0.788656
-0.788171
-0.787648
-0.787088
-0.786491
-0.785857
-0.785185
-0.784477
-0.783732
-0.782949
-0.78213
-0.781273
-0.78038
-0.77945
-0.778483
-0.777479
-0.776439
-0.775362
-0.774248
-0.773098
-0.771911
-0.770687
-0.769428
-0.768132
-0.7668
-0.765432
-0.764028
-0.762587
-0.761111
-0.759599
-0.758051
-0.756467
-0.754848
-0.753193
-0.751502
-0.749776
-0.748014
-0.746217
-0.791573
-0.791536
-0.791461
-0.791349
-0.791199
-0.791012
-0.790788
-0.790526
-0.790227
-0.789891
-0.789517
-0.789106
-0.788657
-0.788171
-0.787648
-0.787088
-0.786491
-0.785856
-0.785184
-0.784476
-0.78373
-0.782947
-0.782128
-0.781271
-0.780378
-0.779448
-0.778481
-0.777477
-0.776437
-0.77536
-0.774247
-0.773097
-0.771911
-0.770688
-0.769428
-0.768133
-0.766801
-0.765433
-0.764029
-0.762589
-0.761112
-0.7596
-0.758052
-0.756468
-0.754849
-0.753193
-0.751502
-0.749776
-0.748014
-0.746217
-0.791572
-0.791534
-0.79146
-0.791347
-0.791198
-0.791011
-0.790787
-0.790525
-0.790226
-0.78989
-0.789516
-0.789105
-0.788657
-0.788171
-0.787648
-0.787089
-0.786491
-0.785857
-0.785186
-0.784478
-0.783732
-0.78295
-0.78213
-0.781274
-0.780381
-0.77945
-0.778483
-0.77748
-0.776439
-0.775362
-0.774248
-0.773097
-0.771911
-0.770687
-0.769428
-0.768132
-0.7668
-0.765432
-0.764028
-0.762588
-0.761111
-0.759599
-0.758052
-0.756468
-0.754849
-0.753194
-0.751503
-0.749777
-0.748015
-0.746218
-0.791572
-0.791535
-0.79146
-0.791348
-0.791199
-0.791012
-0.790787
-0.790526
-0.790227
-0.78989
-0.789517
-0.789106
-0.788657
-0.788172
-0.787649
-0.787089
-0.786491
-0.785857
-0.785185
-0.784477
-0.783731
-0.782948
-0.782129
-0.781272
-0.780379
-0.779449
-0.778482
-0.777479
-0.776439
-0.775362
-0.774249
-0.773099
-0.771912
-0.770689
-0.76943
-0.768134
-0.766802
-0.765434
-0.76403
-0.762589
-0.761113
-0.7596
-0.758052
-0.756468
-0.754848
-0.753193
-0.751502
-0.749776
-0.748014
-0.746217
-0.791572
-0.791535
-0.79146
-0.791348
-0.791198
-0.791011
-0.790787
-0.790525
-0.790226
-0.78989
-0.789517
-0.789106
-0.788657
-0.788172
-0.787649
-0.787089
-0.786492
-0.785858
-0.785186
-0.784478
-0.783732
-0.78295
-0.78213
-0.781274
-0.78038
-0.77945
-0.778483
-0.777479
-0.776439
-0.775361
-0.774248
-0.773097
-0.771911
-0.770687
-0.769428
-0.768132
-0.766801
-0.765433
-0.764029
-0.762589
-0.761113
-0.759601
-0.758053
-0.756469
-0.75485
-0.753195
-0.751504
-0.749778
-0.748016
-0.746218
-0.791573
-0.791535
-0.79146
-0.791348
-0.791199
-0.791012
-0.790788
-0.790526
-0.790227
-0.789891
-0.789517
-0.789106
-0.788658
-0.788172
-0.787649
-0.787089
-0.786492
-0.785858
-0.785186
-0.784477
-0.783732
-0.782949
-0.78213
-0.781274
-0.78038
-0.77945
-0.778484
-0.77748
-0.77644
-0.775363
-0.774249
-0.773099
-0.771913
-0.77069
-0.76943
-0.768134
-0.766802
-0.765434
-0.764029
-0.762589
-0.761112
-0.7596
-0.758052
-0.756468
-0.754848
-0.753193
-0.751502
-0.749776
-0.748014
-0.746217
-0.791573
-0.791536
-0.791461
-0.791349
-0.791199
-0.791012
-0.790788
-0.790526
-0.790227
-0.789891
-0.789517
-0.789106
-0.788657
-0.788172
-0.787649
-0.787089
-0.786492
-0.785857
-0.785186
-0.784477
-0.783731
-0.782949
-0.782129
-0.781273
-0.780379
-0.779449
-0.778482
-0.777478
-0.776438
-0.775361
-0.774247
-0.773097
-0.771911
-0.770688
-0.769429
-0.768133
-0.766802
-0.765434
-0.76403
-0.76259
-0.761114
-0.759602
-0.758054
-0.75647
-0.754851
-0.753195
-0.751504
-0.749778
-0.748016
-0.746219
-0.791573
-0.791536
-0.791461
-0.791349
-0.791199
-0.791013
-0.790788
-0.790527
-0.790228
-0.789891
-0.789518
-0.789107
-0.788658
-0.788173
-0.78765
-0.787089
-0.786492
-0.785858
-0.785186
-0.784477
-0.783732
-0.782949
-0.78213
-0.781273
-0.78038
-0.77945
-0.778483
-0.77748
-0.776439
-0.775362
-0.774249
-0.773099
-0.771912
-0.770689
-0.769429
-0.768134
-0.766801
-0.765433
-0.764029
-0.762589
-0.761112
-0.7596
-0.758052
-0.756468
-0.754848
-0.753193
-0.751502
-0.749776
-0.748015
-0.746218
-0.791573
-0.791536
-0.791461
-0.791349
-0.791199
-0.791012
-0.790787
-0.790526
-0.790226
-0.78989
-0.789516
-0.789105
-0.788657
-0.788171
-0.787648
-0.787088
-0.78649
-0.785856
-0.785185
-0.784476
-0.78373
-0.782948
-0.782128
-0.781272
-0.780379
-0.779449
-0.778482
-0.777479
-0.776438
-0.775362
-0.774248
-0.773098
-0.771912
-0.770689
-0.76943
-0.768135
-0.766803
-0.765435
-0.764031
-0.762591
-0.761115
-0.759603
-0.758055
-0.756471
-0.754851
-0.753195
-0.751504
-0.749778
-0.748016
-0.746218
-0.791573
-0.791535
-0.791461
-0.791348
-0.791199
-0.791012
-0.790788
-0.790526
-0.790227
-0.789891
-0.789517
-0.789106
-0.788657
-0.788171
-0.787648
-0.787088
-0.786491
-0.785856
-0.785185
-0.784476
-0.783731
-0.782948
-0.782129
-0.781272
-0.780379
-0.779449
-0.778483
-0.777479
-0.776439
-0.775362
-0.774248
-0.773098
-0.771912
-0.770689
-0.769429
-0.768134
-0.766802
-0.765434
-0.76403
-0.762589
-0.761113
-0.759601
-0.758053
-0.756469
-0.75485
-0.753194
-0.751504
-0.749777
-0.748016
-0.746218
-0.791571
-0.791534
-0.791459
-0.791347
-0.791197
-0.79101
-0.790786
-0.790524
-0.790225
-0.789889
-0.789515
-0.789104
-0.788655
-0.78817
-0.787647
-0.787087
-0.78649
-0.785855
-0.785184
-0.784476
-0.78373
-0.782948
-0.782129
-0.781272
-0.780379
-0.779449
-0.778483
-0.777479
-0.776439
-0.775363
-0.77425
-0.7731
-0.771914
-0.770691
-0.769432
-0.768136
-0.766804
-0.765436
-0.764032
-0.762592
-0.761115
-0.759603
-0.758054
-0.75647
-0.75485
-0.753195
-0.751504
-0.749777
-0.748015
-0.746217
-0.791572
-0.791534
-0.791459
-0.791347
-0.791198
-0.791011
-0.790787
-0.790525
-0.790226
-0.789889
-0.789515
-0.789104
-0.788656
-0.78817
-0.787647
-0.787087
-0.78649
-0.785855
-0.785184
-0.784475
-0.78373
-0.782947
-0.782128
-0.781272
-0.780378
-0.779449
-0.778482
-0.777478
-0.776438
-0.775361
-0.774248
-0.773098
-0.771912
-0.770689
-0.76943
-0.768134
-0.766802
-0.765434
-0.76403
-0.76259
-0.761114
-0.759602
-0.758054
-0.75647
-0.754851
-0.753196
-0.751505
-0.749778
-0.748016
-0.746219
-0.79157
-0.791533
-0.791458
-0.791346
-0.791196
-0.791009
-0.790785
-0.790523
-0.790224
-0.789888
-0.789514
-0.789103
-0.788655
-0.788169
-0.787646
-0.787086
-0.786489
-0.785855
-0.785183
-0.784475
-0.78373
-0.782947
-0.782128
-0.781272
-0.780379
-0.779449
-0.778483
-0.77748
-0.77644
-0.775363
-0.77425
-0.7731
-0.771913
-0.770691
-0.769431
-0.768136
-0.766804
-0.765435
-0.764031
-0.762591
-0.761114
-0.759602
-0.758053
-0.756469
-0.754849
-0.753194
-0.751503
-0.749777
-0.748015
-0.746218
-0.791571
-0.791534
-0.791459
-0.791347
-0.791197
-0.79101
-0.790786
-0.790524
-0.790225
-0.789888
-0.789515
-0.789103
-0.788655
-0.788169
-0.787646
-0.787086
-0.786488
-0.785854
-0.785182
-0.784474
-0.783728
-0.782946
-0.782126
-0.78127
-0.780377
-0.779447
-0.77848
-0.777477
-0.776437
-0.77536
-0.774247
-0.773097
-0.771911
-0.770688
-0.769429
-0.768134
-0.766802
-0.765434
-0.764031
-0.762591
-0.761115
-0.759603
-0.758055
-0.756471
-0.754851
-0.753196
-0.751505
-0.749778
-0.748017
-0.746219
-0.791569
-0.791532
-0.791457
-0.791345
-0.791195
-0.791008
-0.790784
-0.790522
-0.790223
-0.789887
-0.789513
-0.789102
-0.788653
-0.788168
-0.787645
-0.787085
-0.786487
-0.785853
-0.785182
-0.784473
-0.783728
-0.782945
-0.782126
-0.78127
-0.780377
-0.779447
-0.778481
-0.777477
-0.776437
-0.775361
-0.774247
-0.773097
-0.771911
-0.770688
-0.769429
-0.768133
-0.766801
-0.765434
-0.764029
-0.762589
-0.761113
-0.759601
-0.758053
-0.75647
-0.754851
-0.753196
-0.751505
-0.749779
-0.748018
-0.746221
-0.79157
-0.791532
-0.791458
-0.791346
-0.791196
-0.791009
-0.790785
-0.790523
-0.790224
-0.789887
-0.789513
-0.789102
-0.788653
-0.788167
-0.787644
-0.787084
-0.786486
-0.785852
-0.78518
-0.784472
-0.783726
-0.782944
-0.782124
-0.781268
-0.780375
-0.779445
-0.778479
-0.777475
-0.776435
-0.775359
-0.774246
-0.773096
-0.77191
-0.770687
-0.769428
-0.768133
-0.766802
-0.765434
-0.76403
-0.76259
-0.761114
-0.759602
-0.758054
-0.75647
-0.754851
-0.753196
-0.751505
-0.749779
-0.748017
-0.74622
-0.791566
-0.791529
-0.791454
-0.791342
-0.791192
-0.791005
-0.790781
-0.790519
-0.79022
-0.789884
-0.78951
-0.789099
-0.788651
-0.788165
-0.787642
-0.787082
-0.786485
-0.78585
-0.785179
-0.784471
-0.783725
-0.782943
-0.782124
-0.781267
-0.780374
-0.779445
-0.778478
-0.777475
-0.776435
-0.775358
-0.774245
-0.773095
-0.771909
-0.770687
-0.769428
-0.768133
-0.766801
-0.765434
-0.76403
-0.762591
-0.761115
-0.759603
-0.758056
-0.756473
-0.754854
-0.753199
-0.751508
-0.749782
-0.748021
-0.746224
-0.791568
-0.79153
-0.791456
-0.791343
-0.791194
-0.791007
-0.790782
-0.79052
-0.790221
-0.789885
-0.789511
-0.789099
-0.788651
-0.788165
-0.787642
-0.787082
-0.786485
-0.78585
-0.785179
-0.784471
-0.783725
-0.782943
-0.782124
-0.781267
-0.780375
-0.779445
-0.778478
-0.777475
-0.776435
-0.775359
-0.774246
-0.773096
-0.77191
-0.770687
-0.769428
-0.768133
-0.766801
-0.765434
-0.76403
-0.76259
-0.761114
-0.759602
-0.758054
-0.756471
-0.754852
-0.753197
-0.751506
-0.74978
-0.748019
-0.746222
-0.791564
-0.791526
-0.791452
-0.791339
-0.79119
-0.791003
-0.790779
-0.790517
-0.790218
-0.789882
-0.789508
-0.789097
-0.788649
-0.788163
-0.78764
-0.78708
-0.786483
-0.785849
-0.785178
-0.784469
-0.783724
-0.782942
-0.782123
-0.781267
-0.780374
-0.779444
-0.778478
-0.777475
-0.776435
-0.775359
-0.774246
-0.773096
-0.771911
-0.770688
-0.76943
-0.768135
-0.766803
-0.765436
-0.764033
-0.762593
-0.761117
-0.759606
-0.758058
-0.756474
-0.754855
-0.7532
-0.75151
-0.749783
-0.748022
-0.746225
-0.791566
-0.791528
-0.791453
-0.791341
-0.791192
-0.791005
-0.79078
-0.790518
-0.790219
-0.789883
-0.789509
-0.789098
-0.788649
-0.788164
-0.787641
-0.787081
-0.786484
-0.785849
-0.785178
-0.78447
-0.783724
-0.782942
-0.782123
-0.781267
-0.780374
-0.779445
-0.778478
-0.777475
-0.776435
-0.775359
-0.774246
-0.773096
-0.77191
-0.770687
-0.769428
-0.768133
-0.766802
-0.765434
-0.764031
-0.762591
-0.761115
-0.759604
-0.758056
-0.756473
-0.754854
-0.753199
-0.751509
-0.749783
-0.748021
-0.746225
-0.791564
-0.791526
-0.791452
-0.791339
-0.79119
-0.791003
-0.790778
-0.790517
-0.790218
-0.789881
-0.789508
-0.789096
-0.788648
-0.788163
-0.78764
-0.78708
-0.786483
-0.785849
-0.785178
-0.78447
-0.783725
-0.782943
-0.782124
-0.781268
-0.780375
-0.779446
-0.77848
-0.777477
-0.776437
-0.775361
-0.774248
-0.773098
-0.771912
-0.77069
-0.769431
-0.768136
-0.766805
-0.765437
-0.764033
-0.762593
-0.761117
-0.759605
-0.758058
-0.756474
-0.754855
-0.753199
-0.751509
-0.749782
-0.748021
-0.746223
-0.791565
-0.791528
-0.791453
-0.79134
-0.791191
-0.791004
-0.79078
-0.790518
-0.790219
-0.789882
-0.789508
-0.789097
-0.788649
-0.788163
-0.78764
-0.78708
-0.786483
-0.785848
-0.785177
-0.784469
-0.783723
-0.782941
-0.782122
-0.781266
-0.780374
-0.779444
-0.778478
-0.777475
-0.776435
-0.775359
-0.774246
-0.773096
-0.77191
-0.770688
-0.769429
-0.768134
-0.766803
-0.765436
-0.764033
-0.762593
-0.761117
-0.759606
-0.758058
-0.756475
-0.754856
-0.753201
-0.751511
-0.749785
-0.748023
-0.746226
-0.791566
-0.791528
-0.791454
-0.791341
-0.791192
-0.791005
-0.79078
-0.790519
-0.790219
-0.789883
-0.789509
-0.789098
-0.78865
-0.788164
-0.787641
-0.787081
-0.786484
-0.78585
-0.785179
-0.784471
-0.783726
-0.782943
-0.782124
-0.781269
-0.780376
-0.779446
-0.77848
-0.777477
-0.776437
-0.775361
-0.774248
-0.773098
-0.771912
-0.770689
-0.76943
-0.768135
-0.766804
-0.765436
-0.764032
-0.762592
-0.761116
-0.759604
-0.758056
-0.756473
-0.754853
-0.753198
-0.751507
-0.749781
-0.748019
-0.746222
-0.791566
-0.791528
-0.791453
-0.791341
-0.791191
-0.791004
-0.79078
-0.790518
-0.790218
-0.789882
-0.789508
-0.789097
-0.788648
-0.788162
-0.787639
-0.787079
-0.786482
-0.785848
-0.785177
-0.784468
-0.783723
-0.782941
-0.782122
-0.781266
-0.780374
-0.779444
-0.778478
-0.777475
-0.776435
-0.775359
-0.774246
-0.773097
-0.771911
-0.770689
-0.769431
-0.768136
-0.766805
-0.765437
-0.764034
-0.762594
-0.761119
-0.759607
-0.758059
-0.756476
-0.754857
-0.753202
-0.751511
-0.749785
-0.748023
-0.746226
-0.791568
-0.791531
-0.791456
-0.791344
-0.791195
-0.791008
-0.790783
-0.790521
-0.790222
-0.789886
-0.789512
-0.789101
-0.788652
-0.788166
-0.787643
-0.787083
-0.786486
-0.785851
-0.78518
-0.784471
-0.783726
-0.782944
-0.782125
-0.781268
-0.780375
-0.779446
-0.778479
-0.777476
-0.776436
-0.775359
-0.774246
-0.773097
-0.771911
-0.770688
-0.769429
-0.768134
-0.766802
-0.765435
-0.764031
-0.762591
-0.761115
-0.759603
-0.758055
-0.756472
-0.754852
-0.753197
-0.751506
-0.74978
-0.748018
-0.746221
-0.791567
-0.79153
-0.791455
-0.791342
-0.791193
-0.791006
-0.790781
-0.790519
-0.79022
-0.789883
-0.789509
-0.789098
-0.788649
-0.788164
-0.787641
-0.787081
-0.786483
-0.785849
-0.785178
-0.784469
-0.783724
-0.782942
-0.782123
-0.781267
-0.780375
-0.779445
-0.778479
-0.777476
-0.776436
-0.77536
-0.774247
-0.773098
-0.771912
-0.77069
-0.769431
-0.768136
-0.766805
-0.765437
-0.764034
-0.762594
-0.761118
-0.759606
-0.758058
-0.756475
-0.754856
-0.7532
-0.75151
-0.749783
-0.748022
-0.746224
-0.791571
-0.791533
-0.791459
-0.791346
-0.791197
-0.79101
-0.790786
-0.790524
-0.790224
-0.789888
-0.789514
-0.789102
-0.788654
-0.788168
-0.787645
-0.787084
-0.786487
-0.785852
-0.785181
-0.784472
-0.783727
-0.782944
-0.782125
-0.781269
-0.780376
-0.779446
-0.77848
-0.777476
-0.776436
-0.77536
-0.774246
-0.773097
-0.771911
-0.770688
-0.769429
-0.768134
-0.766802
-0.765434
-0.76403
-0.76259
-0.761114
-0.759602
-0.758054
-0.75647
-0.754851
-0.753196
-0.751505
-0.749779
-0.748017
-0.74622
-0.791569
-0.791532
-0.791457
-0.791345
-0.791195
-0.791008
-0.790783
-0.790521
-0.790222
-0.789886
-0.789512
-0.7891
-0.788652
-0.788166
-0.787643
-0.787083
-0.786486
-0.785851
-0.78518
-0.784472
-0.783726
-0.782944
-0.782125
-0.781269
-0.780376
-0.779447
-0.77848
-0.777477
-0.776437
-0.775361
-0.774248
-0.773098
-0.771912
-0.77069
-0.769431
-0.768136
-0.766804
-0.765436
-0.764032
-0.762592
-0.761116
-0.759604
-0.758056
-0.756472
-0.754853
-0.753197
-0.751506
-0.74978
-0.748018
-0.74622
-0.791572
-0.791535
-0.79146
-0.791348
-0.791198
-0.791011
-0.790787
-0.790525
-0.790226
-0.789889
-0.789515
-0.789103
-0.788655
-0.788169
-0.787646
-0.787086
-0.786488
-0.785854
-0.785182
-0.784473
-0.783728
-0.782946
-0.782126
-0.78127
-0.780377
-0.779447
-0.77848
-0.777477
-0.776437
-0.77536
-0.774247
-0.773097
-0.771911
-0.770688
-0.769429
-0.768133
-0.766801
-0.765433
-0.764029
-0.762589
-0.761113
-0.759601
-0.758053
-0.756469
-0.754849
-0.753194
-0.751503
-0.749777
-0.748015
-0.746218
-0.791571
-0.791534
-0.791459
-0.791346
-0.791197
-0.79101
-0.790785
-0.790523
-0.790224
-0.789888
-0.789514
-0.789102
-0.788654
-0.788168
-0.787645
-0.787085
-0.786488
-0.785853
-0.785182
-0.784474
-0.783728
-0.782946
-0.782127
-0.781271
-0.780378
-0.779448
-0.778482
-0.777479
-0.776439
-0.775362
-0.774249
-0.773099
-0.771912
-0.77069
-0.76943
-0.768135
-0.766803
-0.765435
-0.76403
-0.76259
-0.761114
-0.759601
-0.758053
-0.756469
-0.754849
-0.753194
-0.751502
-0.749776
-0.748014
-0.746217
-0.791574
-0.791536
-0.791462
-0.791349
-0.7912
-0.791013
-0.790788
-0.790526
-0.790227
-0.78989
-0.789516
-0.789105
-0.788656
-0.78817
-0.787647
-0.787087
-0.786489
-0.785855
-0.785183
-0.784474
-0.783729
-0.782946
-0.782127
-0.781271
-0.780377
-0.779447
-0.778481
-0.777477
-0.776437
-0.77536
-0.774246
-0.773096
-0.77191
-0.770687
-0.769428
-0.768132
-0.7668
-0.765432
-0.764028
-0.762588
-0.761111
-0.759599
-0.758051
-0.756467
-0.754848
-0.753192
-0.751501
-0.749775
-0.748013
-0.746215
-0.791572
-0.791535
-0.79146
-0.791348
-0.791198
-0.791011
-0.790786
-0.790524
-0.790225
-0.789889
-0.789515
-0.789103
-0.788655
-0.788169
-0.787646
-0.787086
-0.786489
-0.785854
-0.785183
-0.784475
-0.783729
-0.782947
-0.782128
-0.781272
-0.780379
-0.779449
-0.778482
-0.777479
-0.776438
-0.775361
-0.774248
-0.773098
-0.771911
-0.770688
-0.769428
-0.768133
-0.766801
-0.765432
-0.764028
-0.762588
-0.761111
-0.759599
-0.758051
-0.756467
-0.754847
-0.753192
-0.751501
-0.749775
-0.748013
-0.746215
-0.791575
-0.791537
-0.791462
-0.79135
-0.791201
-0.791014
-0.790789
-0.790527
-0.790228
-0.789891
-0.789517
-0.789105
-0.788657
-0.788171
-0.787647
-0.787087
-0.78649
-0.785855
-0.785183
-0.784475
-0.783729
-0.782946
-0.782127
-0.78127
-0.780377
-0.779447
-0.77848
-0.777477
-0.776436
-0.775359
-0.774246
-0.773096
-0.771909
-0.770686
-0.769427
-0.768131
-0.766799
-0.765431
-0.764027
-0.762587
-0.76111
-0.759598
-0.75805
-0.756466
-0.754846
-0.753191
-0.7515
-0.749774
-0.748012
-0.746214
-0.791573
-0.791535
-0.79146
-0.791348
-0.791198
-0.791011
-0.790786
-0.790525
-0.790225
-0.789889
-0.789515
-0.789103
-0.788655
-0.788169
-0.787646
-0.787086
-0.786489
-0.785854
-0.785183
-0.784475
-0.783729
-0.782947
-0.782127
-0.781271
-0.780378
-0.779448
-0.778481
-0.777477
-0.776437
-0.77536
-0.774246
-0.773096
-0.77191
-0.770687
-0.769427
-0.768131
-0.7668
-0.765432
-0.764027
-0.762587
-0.761111
-0.759599
-0.758051
-0.756467
-0.754847
-0.753192
-0.751501
-0.749774
-0.748013
-0.746215
-0.791574
-0.791536
-0.791462
-0.79135
-0.7912
-0.791013
-0.790788
-0.790526
-0.790227
-0.78989
-0.789516
-0.789105
-0.788656
-0.78817
-0.787647
-0.787086
-0.786489
-0.785854
-0.785183
-0.784474
-0.783729
-0.782946
-0.782127
-0.78127
-0.780377
-0.779447
-0.77848
-0.777477
-0.776436
-0.775359
-0.774246
-0.773096
-0.771909
-0.770686
-0.769427
-0.768131
-0.766799
-0.765431
-0.764027
-0.762586
-0.76111
-0.759598
-0.758049
-0.756465
-0.754846
-0.75319
-0.751499
-0.749773
-0.748011
-0.746213
-0.791571
-0.791534
-0.791459
-0.791347
-0.791197
-0.79101
-0.790785
-0.790524
-0.790225
-0.789888
-0.789514
-0.789103
-0.788655
-0.788169
-0.787646
-0.787086
-0.786488
-0.785854
-0.785182
-0.784474
-0.783728
-0.782946
-0.782126
-0.78127
-0.780377
-0.779447
-0.77848
-0.777476
-0.776436
-0.775359
-0.774245
-0.773095
-0.771909
-0.770686
-0.769427
-0.768131
-0.766799
-0.765431
-0.764027
-0.762587
-0.761111
-0.759598
-0.75805
-0.756466
-0.754847
-0.753191
-0.751501
-0.749774
-0.748012
-0.746215
-0.791572
-0.791534
-0.791459
-0.791347
-0.791197
-0.79101
-0.790786
-0.790524
-0.790225
-0.789888
-0.789515
-0.789103
-0.788655
-0.788169
-0.787646
-0.787086
-0.786488
-0.785854
-0.785182
-0.784474
-0.783728
-0.782946
-0.782126
-0.78127
-0.780377
-0.779447
-0.77848
-0.777476
-0.776436
-0.775359
-0.774245
-0.773095
-0.771909
-0.770686
-0.769426
-0.76813
-0.766799
-0.76543
-0.764026
-0.762586
-0.761109
-0.759597
-0.758049
-0.756465
-0.754845
-0.75319
-0.751498
-0.749772
-0.74801
-0.746213
-0.791569
-0.791532
-0.791457
-0.791345
-0.791196
-0.791009
-0.790784
-0.790523
-0.790224
-0.789887
-0.789514
-0.789103
-0.788654
-0.788168
-0.787645
-0.787085
-0.786488
-0.785853
-0.785182
-0.784473
-0.783727
-0.782945
-0.782125
-0.781268
-0.780375
-0.779445
-0.778478
-0.777474
-0.776434
-0.775357
-0.774243
-0.773093
-0.771907
-0.770684
-0.769425
-0.768129
-0.766797
-0.765429
-0.764025
-0.762585
-0.761109
-0.759597
-0.758049
-0.756466
-0.754846
-0.753191
-0.7515
-0.749774
-0.748012
-0.746215
-0.791569
-0.791532
-0.791457
-0.791345
-0.791195
-0.791009
-0.790784
-0.790523
-0.790224
-0.789887
-0.789514
-0.789103
-0.788654
-0.788168
-0.787646
-0.787085
-0.786488
-0.785854
-0.785182
-0.784473
-0.783728
-0.782945
-0.782126
-0.781269
-0.780376
-0.779446
-0.778479
-0.777475
-0.776435
-0.775358
-0.774244
-0.773094
-0.771907
-0.770684
-0.769425
-0.768129
-0.766797
-0.765429
-0.764024
-0.762584
-0.761108
-0.759595
-0.758047
-0.756463
-0.754844
-0.753188
-0.751497
-0.749771
-0.748009
-0.746212
-0.791568
-0.791531
-0.791456
-0.791344
-0.791195
-0.791008
-0.790784
-0.790522
-0.790223
-0.789887
-0.789513
-0.789102
-0.788654
-0.788168
-0.787645
-0.787084
-0.786487
-0.785852
-0.78518
-0.784471
-0.783726
-0.782943
-0.782123
-0.781267
-0.780373
-0.779443
-0.778476
-0.777472
-0.776432
-0.775355
-0.774241
-0.773091
-0.771905
-0.770682
-0.769423
-0.768127
-0.766796
-0.765428
-0.764024
-0.762584
-0.761108
-0.759596
-0.758048
-0.756465
-0.754845
-0.75319
-0.7515
-0.749774
-0.748012
-0.746215
-0.791568
-0.79153
-0.791456
-0.791344
-0.791194
-0.791007
-0.790783
-0.790522
-0.790223
-0.789887
-0.789513
-0.789102
-0.788654
-0.788168
-0.787645
-0.787085
-0.786488
-0.785854
-0.785182
-0.784473
-0.783728
-0.782945
-0.782125
-0.781269
-0.780375
-0.779445
-0.778478
-0.777474
-0.776434
-0.775356
-0.774243
-0.773092
-0.771906
-0.770683
-0.769423
-0.768127
-0.766795
-0.765427
-0.764023
-0.762582
-0.761106
-0.759594
-0.758045
-0.756462
-0.754842
-0.753187
-0.751496
-0.749769
-0.748008
-0.746211
-0.791567
-0.79153
-0.791455
-0.791343
-0.791194
-0.791007
-0.790783
-0.790521
-0.790222
-0.789886
-0.789512
-0.789101
-0.788652
-0.788167
-0.787644
-0.787083
-0.786486
-0.785851
-0.785179
-0.78447
-0.783725
-0.782942
-0.782122
-0.781266
-0.780372
-0.779442
-0.778475
-0.777472
-0.776431
-0.775354
-0.774241
-0.773091
-0.771904
-0.770681
-0.769422
-0.768127
-0.766795
-0.765427
-0.764023
-0.762583
-0.761107
-0.759595
-0.758047
-0.756464
-0.754844
-0.753189
-0.751498
-0.749772
-0.748011
-0.746214
-0.791567
-0.791529
-0.791455
-0.791343
-0.791193
-0.791007
-0.790783
-0.790521
-0.790223
-0.789887
-0.789513
-0.789102
-0.788654
-0.788168
-0.787645
-0.787085
-0.786488
-0.785853
-0.785182
-0.784473
-0.783727
-0.782944
-0.782125
-0.781268
-0.780374
-0.779444
-0.778477
-0.777473
-0.776432
-0.775355
-0.774241
-0.773091
-0.771904
-0.770681
-0.769422
-0.768126
-0.766794
-0.765426
-0.764021
-0.762581
-0.761105
-0.759592
-0.758044
-0.75646
-0.754841
-0.753185
-0.751494
-0.749768
-0.748007
-0.746209
-0.791566
-0.791529
-0.791454
-0.791342
-0.791192
-0.791005
-0.790781
-0.79052
-0.790221
-0.789884
-0.789511
-0.7891
-0.788651
-0.788166
-0.787643
-0.787083
-0.786485
-0.785851
-0.785179
-0.78447
-0.783725
-0.782942
-0.782122
-0.781266
-0.780372
-0.779442
-0.778475
-0.777472
-0.776431
-0.775354
-0.774241
-0.773091
-0.771904
-0.770681
-0.769422
-0.768127
-0.766795
-0.765427
-0.764023
-0.762583
-0.761107
-0.759595
-0.758047
-0.756463
-0.754844
-0.753188
-0.751498
-0.749771
-0.74801
-0.746213
-0.791566
-0.791529
-0.791455
-0.791343
-0.791193
-0.791007
-0.790783
-0.790521
-0.790222
-0.789886
-0.789513
-0.789102
-0.788654
-0.788168
-0.787645
-0.787085
-0.786488
-0.785853
-0.785181
-0.784473
-0.783727
-0.782944
-0.782124
-0.781267
-0.780374
-0.779443
-0.778476
-0.777472
-0.776431
-0.775354
-0.774241
-0.77309
-0.771904
-0.77068
-0.769421
-0.768125
-0.766793
-0.765425
-0.764021
-0.762581
-0.761104
-0.759592
-0.758044
-0.75646
-0.754841
-0.753185
-0.751494
-0.749768
-0.748006
-0.746209
-0.791565
-0.791528
-0.791453
-0.791341
-0.791191
-0.791004
-0.79078
-0.790519
-0.79022
-0.789883
-0.78951
-0.789099
-0.788651
-0.788165
-0.787642
-0.787082
-0.786485
-0.785851
-0.785179
-0.784471
-0.783725
-0.782942
-0.782123
-0.781266
-0.780373
-0.779443
-0.778476
-0.777472
-0.776432
-0.775355
-0.774241
-0.773091
-0.771905
-0.770682
-0.769423
-0.768127
-0.766795
-0.765427
-0.764023
-0.762583
-0.761107
-0.759595
-0.758047
-0.756463
-0.754843
-0.753188
-0.751497
-0.749771
-0.748009
-0.746212
-0.791572
-0.791535
-0.791461
-0.791348
-0.791199
-0.791012
-0.790788
-0.790526
-0.790227
-0.78989
-0.789516
-0.789105
-0.788657
-0.788171
-0.787648
-0.787088
-0.78649
-0.785856
-0.785184
-0.784475
-0.78373
-0.782947
-0.782127
-0.781271
-0.780378
-0.779448
-0.778481
-0.777477
-0.776437
-0.77536
-0.774247
-0.773097
-0.77191
-0.770687
-0.769428
-0.768132
-0.7668
-0.765432
-0.764028
-0.762588
-0.761111
-0.759599
-0.758051
-0.756467
-0.754848
-0.753193
-0.751502
-0.749776
-0.748015
-0.746217
-0.79157
-0.791532
-0.791457
-0.791345
-0.791196
-0.791009
-0.790785
-0.790523
-0.790225
-0.789889
-0.789515
-0.789104
-0.788656
-0.788171
-0.787649
-0.787089
-0.786492
-0.785858
-0.785186
-0.784478
-0.783732
-0.78295
-0.782131
-0.781274
-0.780381
-0.779451
-0.778484
-0.77748
-0.776439
-0.775362
-0.774248
-0.773098
-0.771911
-0.770688
-0.769428
-0.768133
-0.7668
-0.765432
-0.764028
-0.762588
-0.761111
-0.759599
-0.758051
-0.756467
-0.754848
-0.753193
-0.751502
-0.749775
-0.748014
-0.746217
-0.791574
-0.791536
-0.791461
-0.791349
-0.7912
-0.791013
-0.790788
-0.790526
-0.790227
-0.78989
-0.789516
-0.789105
-0.788656
-0.788171
-0.787648
-0.787087
-0.78649
-0.785855
-0.785184
-0.784475
-0.78373
-0.782947
-0.782127
-0.781271
-0.780378
-0.779448
-0.778481
-0.777477
-0.776437
-0.77536
-0.774247
-0.773097
-0.77191
-0.770687
-0.769428
-0.768132
-0.7668
-0.765432
-0.764028
-0.762588
-0.761111
-0.759599
-0.758051
-0.756468
-0.754848
-0.753193
-0.751503
-0.749777
-0.748015
-0.746218
-0.791572
-0.791534
-0.791459
-0.791347
-0.791198
-0.791011
-0.790787
-0.790525
-0.790226
-0.78989
-0.789516
-0.789105
-0.788657
-0.788171
-0.787648
-0.787088
-0.786491
-0.785857
-0.785186
-0.784477
-0.783731
-0.782949
-0.782129
-0.781273
-0.78038
-0.77945
-0.778483
-0.777479
-0.776438
-0.775361
-0.774247
-0.773097
-0.77191
-0.770687
-0.769428
-0.768132
-0.7668
-0.765432
-0.764028
-0.762588
-0.761111
-0.759599
-0.758051
-0.756468
-0.754848
-0.753193
-0.751502
-0.749776
-0.748014
-0.746217
-0.791574
-0.791537
-0.791462
-0.79135
-0.7912
-0.791013
-0.790788
-0.790526
-0.790227
-0.789891
-0.789517
-0.789106
-0.788657
-0.788171
-0.787648
-0.787088
-0.78649
-0.785856
-0.785184
-0.784476
-0.78373
-0.782947
-0.782128
-0.781271
-0.780378
-0.779448
-0.778481
-0.777477
-0.776437
-0.77536
-0.774247
-0.773097
-0.77191
-0.770687
-0.769428
-0.768132
-0.766801
-0.765433
-0.764028
-0.762588
-0.761112
-0.7596
-0.758052
-0.756468
-0.754849
-0.753193
-0.751503
-0.749777
-0.748015
-0.746218
-0.791573
-0.791535
-0.79146
-0.791348
-0.791199
-0.791012
-0.790787
-0.790526
-0.790227
-0.78989
-0.789516
-0.789105
-0.788657
-0.788171
-0.787649
-0.787089
-0.786492
-0.785857
-0.785186
-0.784477
-0.783732
-0.782949
-0.78213
-0.781273
-0.78038
-0.77945
-0.778483
-0.777479
-0.776438
-0.775361
-0.774247
-0.773097
-0.77191
-0.770687
-0.769428
-0.768132
-0.7668
-0.765432
-0.764028
-0.762588
-0.761111
-0.759599
-0.758052
-0.756468
-0.754849
-0.753193
-0.751503
-0.749777
-0.748015
-0.746218
-0.791573
-0.791536
-0.791461
-0.791349
-0.791199
-0.791012
-0.790788
-0.790526
-0.790227
-0.789891
-0.789517
-0.789106
-0.788657
-0.788172
-0.787649
-0.787088
-0.786491
-0.785856
-0.785185
-0.784476
-0.783731
-0.782948
-0.782129
-0.781272
-0.780379
-0.779449
-0.778482
-0.777479
-0.776438
-0.775362
-0.774248
-0.773098
-0.771912
-0.770689
-0.769429
-0.768134
-0.766802
-0.765434
-0.764029
-0.762589
-0.761113
-0.7596
-0.758052
-0.756468
-0.754849
-0.753194
-0.751503
-0.749776
-0.748015
-0.746218
-0.791572
-0.791535
-0.79146
-0.791348
-0.791198
-0.791012
-0.790787
-0.790526
-0.790227
-0.78989
-0.789517
-0.789106
-0.788658
-0.788172
-0.787649
-0.787089
-0.786492
-0.785858
-0.785187
-0.784478
-0.783732
-0.78295
-0.78213
-0.781274
-0.780381
-0.77945
-0.778483
-0.777479
-0.776439
-0.775361
-0.774248
-0.773097
-0.771911
-0.770687
-0.769428
-0.768132
-0.7668
-0.765433
-0.764029
-0.762588
-0.761112
-0.7596
-0.758053
-0.756469
-0.75485
-0.753194
-0.751504
-0.749777
-0.748016
-0.746218
-0.791572
-0.791535
-0.79146
-0.791348
-0.791198
-0.791012
-0.790787
-0.790526
-0.790227
-0.789891
-0.789517
-0.789106
-0.788658
-0.788172
-0.787649
-0.787089
-0.786492
-0.785857
-0.785186
-0.784477
-0.783732
-0.782949
-0.78213
-0.781274
-0.780381
-0.779451
-0.778484
-0.77748
-0.77644
-0.775363
-0.77425
-0.7731
-0.771913
-0.77069
-0.76943
-0.768134
-0.766802
-0.765434
-0.76403
-0.762589
-0.761113
-0.7596
-0.758052
-0.756468
-0.754849
-0.753193
-0.751503
-0.749777
-0.748015
-0.746218
-0.791573
-0.791536
-0.791461
-0.791349
-0.791199
-0.791013
-0.790788
-0.790527
-0.790228
-0.789891
-0.789518
-0.789107
-0.788658
-0.788173