/*--------------------------------*- C++ -*----------------------------------*\
  =========                 |
  \\      /  F ield         | OpenFOAM: The Open Source CFD Toolbox
   \\    /   O peration     | Website:  https://openfoam.org
    \\  /    A nd           | Version:  10
     \\/     M anipulation  |
\*---------------------------------------------------------------------------*/
FoamFile
{
    format      ascii;
    class       volScalarField;
    location    "0.3";
    object      gradTx;
}
// * * * * * * * * * * * * * * * * * * * * * * * * * * * * * * * * * * * * * //

dimensions      [0 -1 0 1 0 0 0];

internalField   nonuniform List<scalar> 
47104
(
1.3959e-13
-6.19299e-15
5.86824e-13
5.51545e-13
-1.94693e-13
1.55231e-13
2.56346e-13
5.25537e-14
-2.57264e-15
-1.39584e-13
9.32208e-15
-9.24761e-14
1.47481e-13
-5.33245e-13
1.36972e-14
7.92242e-12
5.08989e-13
-7.45732e-12
-6.17176e-12
-5.52447e-12
-1.39536e-13
9.21406e-14
5.29668e-12
-1.26082e-13
-5.76178e-12
1.85307e-13
6.3e-13
2.23745e-13
6.41274e-13
2.88441e-13
-4.61883e-12
-5.1782e-12
-6.4076e-13
7.17006e-14
-1.28718e-13
1.09341e-13
-5.54172e-13
-1.28935e-13
7.86664e-13
1.57889e-13
1.4855e-13
5.42096e-14
7.95374e-15
-1.50007e-13
-1.59357e-14
-1.98372e-13
4.67551e-14
-1.49982e-13
1.7877e-13
0
0
8.5555e-13
1.64541e-13
-8.74391e-14
1.23709e-13
3.43714e-12
3.72926e-14
1.35972e-12
-2.03842e-13
-5.49617e-12
5.34446e-12
4.91368e-13
-5.55988e-12
3.37483e-13
-4.9243e-13
6.67922e-15
4.82651e-13
2.86923e-12
-1.3228e-13
-2.8161e-12
4.56183e-13
-2.05149e-13
-4.3296e-13
-7.52062e-12
-8.93699e-14
7.85343e-12
-1.40107e-13
-4.49328e-14
7.04264e-13
7.35228e-13
-1.39766e-13
1.79939e-13
5.6744e-13
-1.59196e-13
-5.49235e-13
1.03511e-13
5.97125e-12
-5.93491e-14
4.0213e-13
6.1024e-12
1.39609e-13
4.66196e-13
-1.21779e-13
-3.50837e-13
-5.84319e-12
1.62316e-13
5.04204e-12
-5.25992e-12
6.04123e-13
5.07869e-12
-1.49214e-13
-2.17131e-13
-2.76886e-12
8.74376e-14
2.82477e-12
-2.09818e-14
1.03176e-13
-2.00622e-13
9.53819e-14
4.47613e-13
-1.49336e-13
-9.64508e-12
-4.66117e-12
9.91174e-12
4.7598e-12
8.00217e-12
5.20131e-12
-1.44823e-11
-5.27332e-12
6.42108e-12
4.77781e-12
7.18247e-12
-4.96776e-12
1.16772e-12
-3.50106e-13
-1.27323e-11
2.37736e-11
-1.12239e-11
0
1.493e-13
1.49207e-13
-2.39262e-12
-1.73759e-13
0
-1.4831e-11
1.5326e-11
-3.18502e-14
-1.01552e-11
-6.16838e-12
0
-1.49167e-13
2.05658e-12
2.1768e-12
-2.34314e-12
1.14543e-13
-1.01794e-11
1.0624e-11
-6.41436e-13
-6.28175e-12
-6.26468e-12
5.22116e-12
5.64646e-12
5.59002e-13
6.53321e-13
9.84183e-12
-1.01301e-11
1.38331e-11
-1.33338e-11
-7.70276e-12
1.78996e-12
1.2834e-11
5.9822e-13
-9.11362e-12
-1.08108e-11
1.12885e-11
4.21874e-14
-1.17459e-13
1.43341e-11
-1.04681e-12
1.17879e-11
0
-2.61892e-13
1.61025e-11
-1.54258e-11
4.9252e-13
9.52966e-14
-1.40128e-12
2.58775e-13
2.31943e-12
1.49319e-13
5.22745e-12
5.38996e-12
-5.26439e-12
-5.33595e-12
-6.45071e-13
-1.88893e-13
-6.36685e-13
4.49475e-13
-4.48126e-12
-5.0777e-12
-1.4921e-13
1.70657e-13
-4.55144e-13
4.39411e-13
-7.85001e-12
-5.80472e-12
8.00969e-12
5.50487e-12
-2.29462e-13
-2.98422e-13
1.49189e-13
6.89562e-12
5.2108e-12
-7.0913e-12
-4.88014e-12
-6.212e-14
-1.48531e-13
1.49571e-13
-1.47008e-13
0
3.58207e-12
-1.20806e-11
5.32054e-12
-1.35189e-11
1.34676e-11
-5.92946e-13
-4.15143e-13
5.19459e-13
1.77182e-13
-4.32795e-12
9.24443e-12
6.73141e-12
8.20638e-13
-6.59844e-13
1.9026e-13
-6.7716e-13
7.56448e-13
8.03659e-14
5.06831e-13
2.98193e-12
-3.87344e-12
1.43207e-11
2.23254e-12
-4.81597e-08
-4.7833e-09
1.08737e-09
1.43163e-08
1.33007e-09
-3.83577e-13
-2.08563e-12
-2.98048e-13
3.61196e-13
1.23333e-11
-6.88443e-08
3.53244e-09
-8.12505e-10
-9.15438e-09
1.29128e-09
-1.6185e-11
0
2.98074e-13
1.13052e-13
1.76667e-11
-7.07419e-08
3.75866e-09
-8.62995e-10
-9.61864e-09
1.29633e-09
2.6282e-13
-2.38435e-12
-2.53328e-12
4.88536e-12
2.5667e-11
-6.05631e-08
2.6137e-09
-5.85001e-10
-7.12228e-09
1.36028e-09
-4.02788e-13
0
-2.08821e-12
3.26215e-12
1.09674e-12
-3.83313e-10
-5.57659e-11
4.30632e-12
1.73514e-10
-6.84087e-11
1.57318e-11
-4.47381e-13
1.49293e-13
1.01419e-11
-9.49208e-12
-1.53787e-11
1.46495e-11
9.99295e-12
-9.80677e-12
-1.04514e-13
-5.09437e-13
4.4782e-12
-6.41492e-12
7.16728e-12
6.33676e-12
-7.70526e-12
4.51179e-13
-6.65356e-13
-4.1339e-14
3.11952e-13
1.51986e-13
0
-5.50742e-12
-4.21019e-12
-7.18142e-14
-1.53135e-12
-7.88845e-12
-1.38492e-13
1.11723e-11
-1.78794e-14
-3.35904e-12
-1.48823e-13
1.48615e-13
4.46779e-14
-7.40126e-12
-7.47904e-12
-3.41236e-12
1.61149e-12
7.2109e-12
1.24054e-11
-9.66908e-13
-4.75499e-12
2.95267e-13
1.09084e-11
-7.81108e-10
-3.85934e-08
-1.38184e-10
4.87452e-10
2.44023e-09
9.07977e-08
3.82384e-08
2.8049e-12
-1.76027e-12
2.92002e-09
8.88699e-06
-0.464339
-0.00258567
0.000162811
0.00697143
0.350464
3.33526e-07
-7.921e-12
1.17196e-12
2.86319e-09
9.14264e-06
-0.704287
-0.0088227
0.000523339
0.0249867
0.461486
2.744e-07
-2.05083e-12
7.32551e-12
2.85808e-09
9.21184e-06
-0.707752
-0.00919779
0.000549512
0.025659
0.463191
2.71077e-07
1.75791e-12
3.22815e-12
2.89521e-09
9.07205e-06
-0.699251
-0.0083818
0.000493842
0.0240434
0.458378
2.85844e-07
1.46701e-13
-7.08923e-12
1.77422e-09
9.35866e-06
0.067834
-0.00153867
-0.00191056
-0.00221851
-0.0677466
5.2243e-08
2.36251e-12
1.48658e-13
4.93963e-13
1.85155e-09
2.97355e-09
5.34267e-11
-1.89879e-11
-3.64712e-10
-3.36656e-09
-1.55549e-11
1.93231e-12
-5.95366e-13
5.9998e-12
5.48069e-13
-7.45111e-13
1.68758e-13
-5.69858e-12
-5.87206e-14
6.87308e-12
3.262e-13
-6.69826e-12
-7.43326e-13
-2.85815e-13
2.49409e-13
2.0696e-14
2.12132e-13
6.75142e-14
-5.88089e-12
4.65842e-13
5.78313e-12
0
1.09809e-11
8.6825e-12
-1.18034e-12
7.67041e-11
9.568e-11
-1.48743e-11
-2.60593e-10
-4.94117e-12
1.07105e-11
-3.85748e-12
9.69715e-12
-4.58486e-11
-6.91813e-07
0.0100878
0.000259457
5.95943e-05
-0.000420244
0.000425919
2.34497e-07
-1.07252e-11
-1.45145e-13
-5.28263e-09
-0.355545
9.59918e-05
-1.4514e-13
-1.44572e-12
-3.50466e-08
-0.432978
0.000153261
3.32493e-12
-2.6027e-12
-3.2903e-08
-0.433779
0.000153528
1.35892e-11
-4.06612e-12
-3.89368e-08
-0.431662
0.000152156
1.45149e-12
2.35196e-12
-1.18021e-09
0.0149114
-1.16107e-05
4.26134e-12
-2.07794e-12
4.34041e-15
3.73272e-09
1.51221e-06
1.58099e-07
-3.30011e-08
-7.81307e-07
4.14318e-07
7.31416e-11
-1.78096e-12
-1.4865e-13
5.95e-13
1.26818e-13
-5.92758e-12
4.15035e-14
1.31596e-11
2.41725e-14
-1.34411e-12
-3.22452e-15
-6.98741e-12
2.23059e-12
7.44557e-15
-2.10691e-12
-1.36963e-13
9.66182e-14
-7.2685e-14
7.97328e-14
-5.46835e-13
1.97936e-13
4.46039e-13
5.05038e-12
2.50739e-11
-1.36576e-11
-2.18357e-11
1.30498e-10
-1.87176e-11
-3.49385e-10
7.12691e-12
1.09315e-12
-2.22768e-12
-2.20556e-12
-5.0643e-11
-7.22862e-07
0.0125061
0.000329351
4.66814e-05
-0.000617217
0.000486664
2.41754e-07
1.01447e-11
-5.80157e-13
1.39276e-09
-0.36546
9.90201e-05
-6.38107e-12
-3.17529e-12
-3.80282e-08
-0.451914
0.000181803
2.59767e-12
5.77413e-13
-3.52504e-08
-0.453038
0.000182439
1.44318e-13
-2.61223e-12
-3.74872e-08
-0.448726
0.000178431
1.04422e-11
-7.50279e-12
-1.3802e-11
-0.00504891
-1.22532e-05
-3.52905e-12
-6.83379e-12
-7.0045e-12
3.89418e-09
1.74305e-06
2.36512e-07
-5.18271e-08
-1.33065e-06
2.56031e-07
4.546e-11
4.90247e-12
1.48683e-13
7.92242e-14
6.2688e-12
6.93914e-14
-6.55367e-12
-3.30602e-14
2.04997e-13
6.1184e-12
5.49812e-16
-6.09711e-12
-1.63671e-12
-7.24296e-13
6.50782e-13
-6.43896e-13
7.70935e-14
2.41998e-13
1.33282e-13
-9.99294e-14
1.68187e-13
-1.48767e-13
1.48675e-12
-2.12014e-11
1.84504e-11
-7.32985e-11
1.35409e-10
-2.05978e-11
-3.53252e-10
9.8895e-12
-2.90823e-13
7.72921e-12
1.10393e-11
-4.305e-11
-7.24456e-07
0.012559
0.000324047
3.21902e-05
-0.000640386
0.00048976
2.4275e-07
-2.20722e-12
-2.61299e-12
3.40233e-09
-0.365748
9.90713e-05
-4.35337e-13
-1.58852e-12
-3.50342e-08
-0.452704
0.000182501
-5.34207e-12
9.96475e-12
-3.16864e-08
-0.45396
0.000183168
4.33148e-13
2.61366e-12
-4.14105e-08
-0.451025
0.000179047
-8.70715e-13
-2.94484e-13
5.07362e-10
0.0156357
-1.23047e-05
1.39811e-11
-3.86594e-12
1.40912e-11
3.84119e-09
1.76784e-06
2.45836e-07
-4.40942e-08
-1.00612e-06
4.80012e-07
6.19218e-11
4.312e-12
-7.28949e-12
-2.51267e-13
1.69843e-12
6.12854e-12
1.18623e-11
-6.17034e-12
-9.6631e-12
1.6442e-13
3.38385e-12
-1.48797e-13
-1.07178e-11
1.23632e-13
1.0614e-11
1.4491e-13
6.562e-12
-5.69932e-12
-5.88685e-12
5.25151e-12
5.88097e-13
5.9536e-13
2.975e-13
-2.24436e-12
2.68012e-12
-7.70554e-11
1.34362e-10
-3.10179e-11
-3.29057e-10
-4.93521e-12
6.37232e-14
2.97435e-13
-1.76764e-12
-6.29779e-11
-7.22088e-07
0.0125682
0.000323382
3.02296e-05
-0.000643162
0.000489696
2.42142e-07
2.79739e-12
1.45308e-13
-3.3243e-08
0.0527451
9.91302e-05
7.2602e-12
-2.89049e-13
-3.52357e-08
-0.452177
0.000182568
1.58927e-12
-2.89032e-13
-3.15243e-08
-0.454029
0.000183235
-4.33445e-13
8.71747e-12
-4.10581e-08
-0.451192
0.000179108
1.74253e-12
3.09391e-12
5.0616e-10
0.0156463
-1.23115e-05
2.06152e-12
-5.35578e-12
-1.27246e-11
3.81376e-09
1.77007e-06
2.45918e-07
-4.79029e-08
-1.08309e-06
4.67291e-07
4.92931e-11
2.97536e-13
0
-5.92367e-12
-5.31948e-14
1.22088e-11
-3.31564e-14
-5.93426e-12
-1.14723e-13
-3.88311e-14
4.43094e-15
0
2.38246e-12
-3.45018e-13
-3.06371e-12
-4.96972e-12
-2.77681e-13
4.80628e-12
-9.3746e-14
-1.47191e-13
8.56e-13
1.48897e-13
-4.16613e-12
7.51014e-14
0
-3.49966e-11
1.27657e-10
-1.98446e-11
-3.75685e-10
4.93019e-12
2.86024e-11
-1.78532e-12
-5.60043e-12
1.57206e-11
-7.22962e-07
0.0125404
0.000322351
3.50323e-05
-0.000632413
0.000488285
2.41306e-07
-2.35717e-12
1.89097e-12
-2.91519e-08
0.0903912
9.93318e-05
-8.72254e-13
-2.02636e-12
-3.76845e-08
-0.451876
0.000182129
1.30231e-12
-6.80268e-12
-3.40773e-08
-0.45366
0.00018277
8.82695e-12
-2.03644e-12
-4.30203e-08
-0.450876
0.000178749
4.36148e-13
-1.76902e-12
5.17634e-10
0.0156408
-1.22949e-05
-4.86229e-12
2.08359e-12
1.80474e-14
3.80406e-09
1.75321e-06
2.36773e-07
-5.15158e-08
-1.33181e-06
2.55186e-07
6.83394e-11
-1.48823e-13
-1.48892e-13
-2.33892e-14
6.61178e-13
-5.26511e-12
-4.55296e-13
4.67922e-12
-1.52235e-13
2.22196e-13
-4.73197e-13
-2.9785e-13
-1.48928e-13
-4.85518e-14
-6.67264e-12
2.3806e-14
6.52082e-12
1.00969e-13
-3.2738e-14
7.54047e-12
-3.00079e-13
-7.29798e-12
8.03586e-12
9.90292e-12
1.19124e-12
-2.36973e-10
-2.34386e-11
9.95358e-14
4.51597e-11
-7.55066e-12
1.11922e-11
-7.44125e-13
9.58524e-12
-4.03911e-11
-7.1752e-07
0.0106727
0.00025164
3.31381e-05
-0.00047457
0.000458823
2.37404e-07
9.73157e-12
1.00561e-11
1.39197e-08
-0.35946
7.83103e-05
5.97373e-12
4.35524e-13
1.13486e-08
-0.439484
9.38577e-05
1.4514e-13
1.00178e-11
1.42256e-08
-0.440469
9.37103e-05
-1.45143e-13
-2.33254e-12
4.24182e-09
-0.438329
9.60613e-05
1.89423e-12
-7.67175e-12
3.39334e-10
0.0151889
-1.11144e-05
3.09686e-12
-3.42397e-12
-7.1807e-13
3.38536e-09
1.26577e-06
1.03541e-07
-1.86747e-08
-4.3701e-07
3.78918e-07
6.56938e-11
4.466e-13
-1.4893e-13
2.42381e-12
7.09881e-12
-2.02679e-12
-7.18587e-12
-8.50976e-12
-7.43869e-12
8.5154e-12
7.63452e-12
1.48962e-13
-1.48929e-13
-1.83162e-13
5.79541e-12
-4.62192e-13
-6.96765e-13
5.88609e-13
-5.96068e-12
4.95197e-13
9.50755e-13
-4.46866e-13
1.48808e-13
-6.10581e-13
-1.13114e-11
1.18135e-11
1.84807e-13
2.94465e-13
7.08302e-14
-1.47284e-11
2.49872e-11
-6.54891e-12
-2.35944e-12
-1.97474e-11
-1.12993e-08
1.37904e-07
3.70863e-09
-6.85147e-10
-7.28885e-09
-8.11584e-07
1.90832e-09
-1.47453e-12
1.45742e-13
-3.74669e-12
-1.78159e-05
-5.96071e-08
2.9141e-13
-2.03279e-12
2.02161e-11
-1.83853e-05
-6.24596e-08
6.67666e-12
1.45216e-13
-2.73616e-12
-1.70785e-05
-6.26525e-08
1.4515e-13
7.5817e-12
1.60002e-11
-1.83807e-05
-6.18078e-08
-1.16576e-11
0
-2.58402e-11
-1.57144e-05
1.40897e-08
3.53952e-12
-1.78665e-12
4.06033e-12
2.47299e-11
-5.863e-10
-4.76186e-11
1.74569e-11
1.57233e-10
-9.98298e-10
-1.39128e-12
-1.48875e-13
4.46835e-13
-5.56231e-13
6.36371e-12
-4.02691e-12
-6.81696e-12
5.05306e-12
-4.10004e-14
-2.5793e-15
6.78459e-14
-1.48971e-13
-2.82939e-12
-7.45104e-12
-5.21593e-12
3.30687e-13
3.94226e-13
-1.03605e-12
-5.86773e-13
1.20035e-13
7.12864e-14
0
-1.29446e-11
-8.37394e-12
1.07216e-11
-1.04855e-11
1.0457e-11
-1.10213e-11
-1.14768e-11
1.1473e-11
2.87299e-13
-1.33939e-12
-1.47353e-13
-1.2506e-11
-1.39075e-11
-2.77761e-11
1.69194e-12
-3.08005e-11
-1.18096e-12
8.98643e-14
1.93665e-11
-1.07561e-11
2.76301e-12
1.68345e-11
-2.23091e-11
-9.43848e-13
0
5.79035e-13
3.00052e-13
-1.06271e-11
-3.6573e-13
0
-2.46116e-12
5.01926e-12
1.00192e-13
2.21287e-11
-3.90767e-12
3.92786e-12
4.1682e-12
-5.71499e-12
-3.64231e-13
-7.12576e-12
8.8467e-12
8.10919e-12
1.43545e-13
8.04253e-13
-1.28226e-11
1.48876e-13
-4.37038e-13
1.02087e-12
-1.01289e-11
1.02792e-11
-1.19531e-11
1.21594e-11
-1.317e-11
1.38178e-11
4.61445e-12
-6.10647e-12
-7.94226e-12
1.14943e-12
8.601e-12
5.10626e-12
5.739e-14
-7.73124e-12
-5.35132e-12
7.80935e-12
5.51144e-12
-6.70061e-12
5.24855e-12
6.74982e-12
-1.19107e-11
-1.07571e-13
9.47426e-13
4.08572e-13
5.32248e-12
-1.67694e-13
2.97875e-13
1.78535e-12
-1.56929e-11
1.22062e-11
1.99273e-12
-1.66345e-12
-1.55199e-11
1.53901e-11
-1.17674e-12
4.0868e-13
-1.10115e-11
1.4729e-13
3.44441e-13
-2.60682e-13
-5.79757e-13
-5.8972e-13
7.48187e-13
1.26364e-12
2.15424e-11
-4.6649e-12
-1.26666e-11
-1.45264e-13
-1.70819e-11
2.46308e-11
2.76132e-12
-7.11732e-12
-1.11298e-11
-1.18336e-11
-4.08896e-14
-1.75773e-11
2.89056e-13
1.44554e-13
-1.2483e-11
1.71767e-11
-3.66875e-13
-1.73446e-12
-8.4275e-12
-1.52471e-11
2.19863e-11
-6.05023e-12
-1.00258e-11
1.62091e-12
-9.34459e-12
2.23228e-11
-2.19982e-11
1.47352e-13
9.07968e-12
6.43953e-12
9.87357e-13
3.84041e-12
-3.33588e-14
-1.43977e-11
-9.45247e-13
1.75787e-12
1.33033e-11
-8.78148e-12
2.97845e-13
3.02649e-13
8.12992e-13
3.78181e-13
-1.32651e-12
-6.74454e-13
6.44424e-12
1.30356e-13
-6.55273e-12
8.93643e-13
-5.9558e-13
1.70599e-13
3.45315e-13
-6.94007e-14
-1.22293e-13
5.30698e-12
-5.40918e-12
-5.25196e-12
5.62708e-12
0
1.4877e-13
-2.38324e-14
5.95492e-13
1.15412e-11
-2.56579e-11
1.36412e-11
3.9338e-13
0
2.90412e-13
-7.43998e-13
-3.09277e-12
-6.90692e-13
-7.93562e-12
3.07937e-11
2.59554e-11
-5.83831e-13
-2.83118e-11
1.92185e-12
3.58629e-13
1.47274e-13
8.85932e-12
6.89132e-12
-9.32841e-12
-2.68951e-12
-1.37965e-11
-2.45653e-12
-9.73958e-13
4.59434e-13
5.9352e-12
-7.22474e-12
-7.22565e-13
6.54879e-13
2.18766e-11
5.8731e-13
-1.30052e-12
0
-5.09606e-12
-9.96683e-12
1.6557e-11
-2.03361e-12
1.11972e-11
1.68335e-11
-3.71555e-11
1.13517e-13
3.83029e-12
0
-7.84729e-15
0
1.01729e-11
7.09644e-12
-1.72988e-11
1.01949e-11
-1.05424e-11
-5.89782e-13
-1.19064e-11
-1.4891e-13
8.06077e-12
8.16102e-12
-1.64412e-11
-7.75237e-12
7.81554e-12
-2.28079e-13
3.127e-13
-1.04365e-12
-1.04252e-12
5.95574e-13
7.24416e-13
-2.14125e-13
2.61702e-13
-1.27068e-15
-6.62121e-14
-5.78866e-14
-4.95806e-12
-5.12998e-12
1.48932e-13
2.38015e-12
-1.08164e-11
1.05025e-11
-2.61641e-13
-4.3602e-13
-2.63534e-13
2.45071e-13
2.94195e-13
1.56948e-11
-2.23201e-12
-1.47291e-12
-3.18127e-13
-7.77143e-12
4.2321e-11
-1.05836e-12
-9.70832e-13
1.29502e-12
2.07115e-11
-1.12066e-11
-3.53494e-12
-1.14775e-11
4.16439e-12
-1.85267e-11
2.90691e-13
-2.76008e-12
-6.79428e-12
-5.97392e-12
1.00564e-12
-4.46854e-12
2.02374e-12
-1.44571e-13
1.81532e-14
3.86948e-12
2.49546e-12
-5.7823e-13
0
-7.48264e-15
-3.21542e-11
-6.85634e-12
3.48678e-12
-1.47359e-13
-4.49703e-12
1.28067e-11
-5.48899e-12
-5.89264e-13
4.46455e-13
2.74239e-13
1.02719e-11
4.1495e-12
-1.47415e-11
-2.84263e-13
-4.63295e-13
1.29248e-12
2.06071e-13
1.63713e-12
1.4891e-13
1.42527e-13
-3.9985e-14
8.32717e-14
-1.6565e-13
8.90724e-14
-1.41864e-14
1.60813e-13
-7.59938e-12
-7.44672e-12
0
2.19879e-13
-3.42015e-13
1.29343e-14
2.56744e-13
-5.99657e-14
6.64843e-14
-5.46921e-15
5.373e-14
1.48946e-13
-1.48766e-13
3.70555e-13
-1.97037e-13
3.48255e-13
3.43778e-13
4.14117e-13
1.18038e-12
-8.82347e-13
1.63002e-14
-1.78575e-12
1.47355e-13
-6.48132e-12
8.1121e-13
2.31767e-12
3.01255e-12
-3.30286e-11
-2.38651e-11
1.52075e-12
6.86412e-12
-1.62096e-12
1.32382e-11
2.53029e-12
5.18403e-13
5.80728e-13
-8.7275e-12
2.60669e-12
-1.24046e-11
5.79955e-12
-1.66789e-11
3.18581e-12
-2.89652e-13
1.43158e-11
-1.95311e-11
-1.54641e-11
-2.4618e-12
-2.91018e-12
8.74542e-12
-1.29668e-11
-1.7486e-12
-1.74554e-12
1.07611e-11
1.6728e-11
-9.4906e-12
-1.52103e-11
1.91585e-12
-1.63712e-12
-9.10267e-12
9.96209e-12
-2.83588e-13
4.14773e-13
-3.70741e-14
1.43079e-11
-7.49759e-13
-1.02831e-12
-4.0187e-12
-1.48925e-13
-2.44351e-14
3.67225e-13
-5.88984e-12
-6.30513e-12
6.54235e-12
5.42001e-12
-6.93604e-13
-7.08148e-12
-7.89442e-12
-2.97865e-13
1.53214e-13
2.77733e-13
-1.47819e-13
-1.50453e-13
-1.61546e-13
9.31085e-14
7.03619e-12
-2.0749e-14
-6.85278e-12
1.05656e-11
-2.82067e-12
1.07102e-11
6.07701e-13
3.0654e-13
-5.27532e-13
-1.29828e-13
7.313e-14
4.20667e-13
7.44283e-13
3.6868e-12
3.93303e-12
-2.10127e-14
3.93221e-13
-7.0984e-13
1.79486e-12
4.79661e-11
1.93912e-11
0
-5.89987e-13
-1.31198e-12
-1.76045e-11
3.70176e-11
1.12736e-12
0
4.35677e-13
-2.50371e-12
-3.32277e-11
-3.68492e-13
1.74264e-12
4.35701e-13
1.2223e-12
-5.45248e-12
2.21486e-13
4.35664e-13
0
-1.18389e-11
1.76432e-11
3.15668e-12
1.45769e-13
0
-2.41344e-13
1.96289e-11
-5.04036e-12
1.47494e-13
-2.67985e-12
-8.06261e-13
-6.52957e-12
-2.40055e-12
1.09192e-11
-1.11174e-11
-5.15315e-13
1.5245e-11
-2.40417e-11
8.93301e-12
6.7032e-12
1.06333e-13
-1.18383e-11
-1.61003e-13
5.15111e-12
-1.92863e-13
5.01472e-12
-2.34181e-13
-5.16669e-12
-2.97966e-13
0
-5.02902e-13
7.14348e-14
1.05613e-13
8.64884e-14
-1.69999e-15
-4.85592e-12
-4.32158e-15
6.13718e-13
-4.46957e-12
-7.73982e-12
-6.91791e-12
9.82859e-12
-1.05647e-11
1.71213e-11
-1.70512e-11
-2.70177e-13
-2.9455e-13
5.08073e-13
2.82859e-12
1.76976e-12
-2.26264e-13
5.25379e-13
9.09336e-15
-4.88745e-13
2.53442e-13
1.87243e-11
2.06295e-13
-1.07777e-11
2.21214e-12
-9.17741e-12
-2.32121e-11
6.5469e-12
-2.18824e-13
7.28267e-13
2.75604e-12
-3.65713e-12
9.08598e-12
2.2112e-13
3.62615e-12
1.45061e-13
1.41634e-11
-1.40202e-11
1.41757e-11
1.14588e-11
7.28426e-13
6.60427e-13
1.68135e-11
1.08665e-11
-5.53489e-12
-2.95026e-13
-8.08345e-12
7.46154e-12
-9.43294e-13
-5.89946e-13
-4.16936e-12
-4.41815e-13
-7.18085e-13
-1.20459e-11
1.25618e-11
-9.78922e-13
2.01399e-12
-1.22771e-11
-4.7481e-12
3.87165e-12
-6.25712e-12
-4.77435e-12
6.62525e-12
4.52237e-12
-8.21525e-14
2.6388e-13
1.83194e-13
1.22413e-13
2.1166e-13
-4.47009e-13
0
6.73768e-13
1.41615e-13
-5.79535e-13
4.01989e-13
-5.19763e-12
4.77334e-12
5.24184e-12
-5.38351e-12
1.48972e-13
-1.48826e-11
-2.22424e-12
-2.23435e-11
-5.88994e-12
1.694e-11
-1.41118e-11
1.49019e-11
-2.0717e-13
-9.76393e-12
1.04186e-12
0
3.87485e-13
-1.88558e-12
1.73739e-12
1.35472e-13
-2.19614e-11
-2.09302e-11
2.07764e-11
-1.93446e-13
5.89419e-13
1.89022e-12
-1.16875e-11
-7.32134e-12
1.96069e-11
-4.65165e-12
-1.59145e-12
9.38995e-13
-2.88766e-11
-1.47047e-11
2.60397e-12
8.3917e-12
8.30871e-12
1.89409e-12
-4.98381e-12
6.36546e-12
-2.03592e-12
3.55229e-12
-1.38129e-11
-3.71602e-12
-4.2159e-12
5.7493e-12
1.09016e-11
4.027e-12
-4.66514e-12
-1.37065e-11
-4.01959e-12
1.04885e-11
6.34129e-12
-1.27535e-12
-4.47652e-12
-1.13962e-11
1.34533e-11
-2.63374e-12
-1.22277e-11
-9.82662e-12
1.48969e-13
-1.72528e-13
-7.79197e-12
-3.14715e-13
7.90429e-12
1.48476e-13
-9.25551e-14
-5.55484e-14
6.53175e-14
1.48999e-13
0
5.90215e-12
-5.41272e-12
-5.9213e-12
4.84678e-13
1.75074e-14
5.07147e-12
-1.04777e-13
-3.47683e-14
1.48977e-13
1.4883e-12
-8.95012e-14
-8.93349e-13
1.37582e-12
-2.33459e-13
1.36858e-13
-4.01007e-13
1.03886e-11
-1.04389e-11
5.95317e-13
1.76814e-12
-4.51818e-12
3.24373e-11
1.1597e-12
5.89797e-13
2.42646e-12
-3.33743e-13
2.22593e-11
3.67208e-12
1.26694e-11
-2.32498e-12
2.17211e-13
1.31447e-11
1.28647e-11
-2.90563e-13
2.45763e-12
-1.4102e-11
2.29354e-11
3.00341e-12
1.73467e-12
-1.8795e-12
-1.31215e-12
3.28122e-12
5.1375e-12
-2.31305e-12
1.09015e-11
9.37837e-12
9.02616e-12
1.37851e-11
-1.3078e-11
-2.94798e-13
3.83221e-12
-6.90626e-12
7.09892e-12
-6.92622e-12
2.97739e-13
8.79863e-14
1.60115e-11
-1.52101e-11
-1.35364e-11
1.334e-11
-1.56146e-13
0
-1.74783e-13
2.23344e-12
-7.44865e-13
1.08861e-13
1.02349e-12
7.31728e-12
-9.40208e-13
-2.31229e-12
7.99278e-12
-5.40998e-12
-7.47829e-12
1.49011e-13
6.10989e-12
5.49546e-12
-6.49503e-13
9.93827e-14
6.10512e-12
-4.33687e-14
-5.88611e-12
-1.49734e-14
-2.60066e-13
0
9.08211e-12
-3.0394e-12
1.19181e-11
9.02826e-14
2.10233e-13
-1.41067e-12
6.49663e-13
0
-1.10921e-11
1.01235e-11
2.94799e-13
-2.19312e-11
3.09161e-11
5.81139e-13
3.42133e-11
2.3355e-11
-3.15307e-11
-1.035e-13
-1.51355e-11
2.06322e-12
-7.70522e-12
-9.93986e-12
5.17783e-12
4.8699e-12
8.72116e-13
1.44649e-13
-2.31363e-13
1.15297e-12
4.61541e-12
4.19455e-12
2.89316e-13
-5.88195e-14
-1.09866e-11
3.88997e-12
6.79917e-12
2.32672e-12
-1.1006e-12
3.60311e-12
1.14522e-11
-2.03597e-12
-4.42325e-13
-8.10616e-13
4.31663e-13
-1.17929e-11
1.3271e-11
2.38249e-12
1.48213e-11
-2.56783e-11
1.03545e-11
-1.67468e-11
5.38708e-12
-8.96476e-13
1.20052e-11
1.04358e-11
1.17677e-11
-1.49017e-13
-4.46692e-12
5.07762e-13
9.24989e-12
-2.57834e-13
-4.84294e-12
-1.06604e-13
-5.67836e-12
-3.24015e-15
5.66451e-12
5.0706e-12
7.42257e-15
-5.69283e-12
-4.80976e-14
3.98434e-13
2.03303e-13
1.11339e-13
-1.94551e-13
-6.18425e-12
-6.11439e-12
-1.63925e-12
2.9919e-13
2.97993e-13
4.15187e-13
-8.73395e-14
9.56119e-12
-1.03753e-11
1.31386e-11
-1.37306e-11
-1.78806e-12
-6.93851e-12
6.63255e-12
1.19756e-12
-2.38227e-11
-2.35867e-12
-1.3654e-12
-2.17699e-11
3.86552e-13
4.15465e-12
2.36147e-12
-1.4574e-13
3.6894e-14
-2.27323e-12
-2.2513e-12
0
-6.38313e-12
-1.43059e-11
2.62926e-13
4.46327e-12
7.25304e-12
0
1.15015e-11
5.64934e-12
-4.32436e-12
8.70539e-13
1.07862e-11
1.0608e-11
8.74727e-13
3.86601e-12
-8.31032e-12
-1.47649e-13
-1.4522e-11
3.56702e-11
0
2.51066e-12
-1.49028e-12
-5.92625e-12
-1.17777e-11
1.0801e-11
-2.28109e-12
1.51996e-11
-1.27133e-11
0
4.28896e-13
1.72947e-11
0
-5.2925e-12
1.9891e-14
5.27253e-12
-1.4689e-13
8.27223e-14
4.72083e-13
-1.04928e-13
-1.71305e-13
4.47521e-13
0
2.22079e-13
7.4098e-14
-2.00245e-13
7.44841e-14
4.35971e-14
-9.35333e-14
-6.72501e-14
-7.79227e-12
-7.7614e-12
4.32826e-12
-5.19248e-13
5.96371e-13
1.36509e-13
1.41991e-13
-2.96224e-13
-9.70888e-13
6.1317e-13
-1.37735e-11
-4.92479e-12
4.44584e-13
2.08724e-12
-2.8237e-11
4.63718e-12
2.39085e-13
2.08754e-12
-1.13032e-12
-3.03636e-11
-2.21058e-11
-2.96339e-13
9.24916e-12
-8.60738e-12
1.83285e-11
-8.56033e-12
0
-5.56229e-12
2.24268e-12
-3.21169e-12
5.55157e-12
-3.65897e-12
7.31905e-13
6.70592e-13
1.22201e-11
6.36436e-12
-1.7565e-12
1.1746e-12
1.30116e-11
-1.79729e-11
9.24335e-12
-1.76188e-12
-2.3713e-12
-4.42604e-13
1.49227e-11
-1.48942e-11
1.77874e-12
9.99924e-12
-3.39307e-12
-2.73074e-12
1.29751e-11
1.10562e-14
2.9878e-13
1.79693e-13
-8.76535e-13
1.05049e-12
-2.23957e-12
-5.22336e-12
-5.03023e-12
6.10279e-12
2.42384e-13
-6.21659e-12
-4.23844e-14
2.90798e-13
6.32161e-12
-2.57887e-13
-6.41957e-12
-2.98453e-13
5.63101e-12
2.13648e-13
-5.11206e-12
-6.46833e-15
-7.6073e-12
-1.73207e-13
7.25911e-12
3.90322e-13
0
1.49299e-13
7.02837e-13
-5.97851e-13
1.04965e-13
-5.00789e-13
1.29259e-13
-5.4259e-13
5.0605e-13
2.50578e-12
-2.38844e-12
1.63705e-12
-3.25803e-12
-1.95209e-11
5.35334e-13
-5.34877e-13
-3.94437e-13
-6.76932e-13
-6.18979e-13
3.7985e-12
6.99343e-12
5.48472e-12
2.04109e-11
-4.35669e-11
5.39745e-12
1.48204e-13
1.33284e-12
4.31988e-13
-3.74228e-12
2.84037e-12
-4.44195e-12
1.25883e-11
8.21749e-12
-1.49836e-12
-3.26478e-12
9.92083e-12
3.70616e-12
-9.86123e-13
2.54343e-12
4.02149e-12
1.03756e-12
-2.82771e-12
7.73156e-12
2.90319e-13
-9.64922e-13
-8.92995e-13
9.25538e-12
9.6927e-12
-2.19589e-13
-1.04116e-11
6.0123e-12
-1.79796e-13
-9.9245e-12
1.12098e-11
2.50237e-14
-8.66084e-12
0
-5.64462e-12
-1.1617e-13
5.71074e-12
1.46282e-13
3.59879e-14
1.44928e-13
5.37528e-13
1.27568e-14
-7.46162e-13
-4.61547e-12
-2.45784e-12
9.96944e-12
7.54426e-12
3.02285e-14
5.42777e-13
6.40399e-12
-3.02066e-13
-6.75372e-12
1.48867e-13
-4.3174e-12
1.94285e-11
-2.46673e-11
2.45969e-11
-1.46565e-11
1.02364e-11
-1.04634e-11
6.41157e-13
-4.93778e-15
-9.07946e-12
-1.48607e-13
-2.62375e-13
0
-7.00446e-12
8.87174e-12
6.30359e-12
5.53195e-12
-2.11552e-11
-1.54297e-11
9.21162e-12
-1.48355e-13
-1.04746e-11
2.11856e-12
1.46277e-11
-2.74711e-11
1.60043e-11
-1.32842e-12
2.85681e-12
3.70202e-13
1.92825e-12
-5.93236e-13
2.28018e-12
3.2599e-11
4.07299e-12
-1.24668e-13
1.10492e-11
-6.07431e-13
-1.32975e-11
1.52913e-11
9.63846e-12
-2.66957e-12
-1.23551e-11
1.76735e-11
-3.84164e-12
2.90125e-13
-8.10426e-13
3.03387e-13
-2.4316e-11
-7.20497e-12
0
-4.45072e-13
-2.87842e-13
-6.22651e-12
-4.72117e-12
-1.38329e-12
1.38532e-11
-1.19017e-11
1.56381e-11
-1.42884e-11
2.52176e-12
-4.6065e-12
-1.66524e-12
-5.0997e-13
-1.70753e-12
2.66552e-11
8.60558e-13
-2.34707e-12
2.16982e-12
3.18294e-12
2.08036e-12
0
2.04481e-13
-1.42642e-11
1.4658e-11
-1.61566e-12
1.37665e-12
-1.36595e-11
1.40021e-11
1.04055e-13
-1.93548e-12
2.97691e-13
2.54583e-13
-3.6688e-14
5.58834e-12
-6.2565e-13
-1.18934e-13
4.558e-13
-5.13716e-12
-3.58178e-13
0
-1.48471e-13
-3.01114e-12
-2.60563e-13
-4.26975e-13
-6.74076e-12
3.31115e-12
1.38872e-11
5.33596e-12
-8.12073e-13
7.42291e-13
6.23169e-12
-8.22673e-12
-6.88999e-12
7.74426e-12
6.91025e-13
-9.92312e-12
-4.42521e-12
9.80518e-12
-7.18193e-12
2.67039e-12
1.4817e-13
2.10496e-12
-3.41647e-12
-1.32159e-11
1.30778e-11
-1.02964e-11
1.03815e-11
7.46032e-13
3.69229e-12
-1.48147e-13
0
3.83571e-12
1.05273e-13
-6.50269e-12
6.79445e-12
1.09399e-11
-1.08584e-11
-1.89982e-13
-4.49876e-12
-6.06781e-12
-1.4798e-13
-2.95151e-13
-1.64294e-11
6.64274e-12
7.13265e-14
-2.65433e-12
1.41821e-13
-1.46975e-11
5.27475e-12
-2.95927e-13
6.95512e-12
1.09579e-11
-3.94867e-12
7.3423e-12
-6.92158e-12
-3.66138e-12
-7.65829e-14
1.44491e-11
-2.50819e-12
-6.5105e-12
7.25291e-12
-4.54546e-12
-9.50683e-12
-9.95102e-13
2.3299e-11
-4.03975e-12
-2.48789e-11
1.4379e-11
4.31631e-12
-1.48007e-13
-1.06728e-11
-8.94523e-12
-1.11747e-11
1.10865e-11
-4.60367e-13
-1.0729e-11
9.39227e-12
-3.42263e-13
-1.00436e-11
2.96469e-13
1.48374e-13
2.99655e-14
1.34324e-11
-2.95018e-13
-6.69679e-12
-2.40058e-12
-4.46493e-13
-8.00755e-12
7.63649e-12
8.75472e-12
6.53159e-12
3.97027e-12
-1.13545e-13
9.06643e-12
1.04981e-13
-6.1313e-12
-1.03593e-12
-7.11585e-12
2.56856e-12
8.61087e-12
-7.41011e-13
-1.16948e-12
-3.00287e-12
1.78083e-13
2.63688e-12
-2.23355e-14
9.77254e-14
4.47982e-13
7.24754e-13
-1.48196e-13
-1.4812e-13
1.14651e-13
-1.559e-14
8.72487e-14
4.98058e-14
-4.23879e-14
-3.5022e-14
-5.8244e-14
-3.46819e-14
-1.48112e-13
-5.03222e-12
-5.01842e-12
2.80229e-13
-2.166e-13
7.12706e-12
-3.50415e-14
-1.22836e-11
1.69088e-13
5.1632e-12
0
1.12422e-11
5.56976e-12
-8.62373e-12
-7.47187e-12
2.61677e-12
7.64134e-12
1.01713e-13
2.47777e-13
-9.39242e-14
-2.95839e-13
-7.83854e-12
-6.91808e-14
8.07623e-12
4.91814e-13
-2.39444e-13
-6.418e-13
-3.56791e-13
-7.20941e-12
5.40355e-13
6.95132e-12
4.4369e-13
-6.54537e-12
-6.25545e-13
6.9653e-12
-3.63609e-14
-4.95792e-12
5.78255e-16
4.9039e-12
-8.68004e-14
0
-1.47925e-13
-8.53012e-12
-1.59298e-13
7.81232e-12
-1.46966e-14
5.49681e-12
1.49616e-13
-5.11193e-12
-2.29131e-13
0
-5.32849e-12
-5.79133e-12
1.05765e-13
6.59556e-14
-4.26136e-14
-7.96998e-12
-1.32771e-13
8.09302e-12
2.11472e-13
1.48019e-13
0
2.83957e-14
6.24931e-12
-2.1796e-13
-6.36902e-12
8.54997e-12
3.90927e-13
-8.49536e-12
1.9935e-13
1.48122e-13
0
-4.53928e-13
-2.02171e-14
3.32292e-13
-3.92087e-14
6.66656e-13
4.92232e-14
-5.47891e-13
1.78645e-14
0
1.48052e-13
5.19793e-12
1.75666e-13
-5.09033e-12
2.04837e-13
-8.5193e-14
-5.74282e-12
-3.85978e-13
5.22488e-12
1.48051e-13
0
-6.30983e-13
4.93114e-12
5.6339e-13
-4.86847e-12
5.15143e-12
-1.89216e-13
-5.29028e-12
-3.97312e-14
1.48001e-13
5.32585e-12
5.38518e-12
1.47607e-13
2.22176e-13
-3.01458e-13
-1.33084e-13
-5.03331e-12
-5.13686e-12
5.29003e-12
5.02995e-12
5.17629e-12
5.47742e-12
-7.01254e-12
-5.02864e-12
3.57336e-12
1.85192e-12
-3.57316e-12
3.22755e-12
7.23199e-12
1.47898e-13
-6.35866e-12
-6.44789e-12
5.46073e-12
1.30467e-11
9.75225e-12
-7.86523e-12
-1.01992e-11
5.99688e-13
1.91137e-12
7.3943e-13
1.47875e-13
-2.52602e-14
-3.60803e-14
1.68116e-13
5.88457e-13
-7.22948e-17
5.11111e-13
-2.85263e-13
-8.71124e-13
-1.47888e-13
-7.24674e-12
-5.3614e-12
7.21277e-12
5.28773e-12
-7.3978e-12
-7.16144e-12
7.52861e-12
1.85622e-12
-2.84187e-13
5.47247e-12
1.47939e-13
1.12091e-13
-1.37811e-14
4.25037e-13
-1.25626e-13
-6.37056e-13
-1.26213e-13
1.53061e-13
5.60467e-12
5.62205e-12
-6.9559e-12
-6.92154e-12
7.07329e-12
1.39439e-11
6.60504e-13
-7.5877e-12
-6.38023e-13
1.88132e-13
-5.16946e-14
0
1.48043e-13
-8.28235e-13
-2.95295e-13
1.09428e-12
-5.86525e-12
-5.00395e-13
-1.02879e-12
9.15623e-12
6.71687e-12
-8.4389e-12
-5.47489e-12
-5.54425e-12
5.17132e-13
-4.35978e-13
-4.70612e-13
5.68387e-13
-3.45677e-13
-2.2272e-13
3.11256e-13
-1.47972e-13
-4.43829e-13
7.61865e-12
7.85822e-12
-4.86948e-13
-6.90612e-12
2.08353e-13
6.20954e-12
5.4452e-12
3.53499e-14
-5.32605e-12
-4.43729e-13
5.43524e-12
9.58813e-13
-5.05151e-12
-2.70027e-13
5.29773e-12
1.22217e-11
-1.47032e-13
-6.91233e-12
-1.47914e-13
8.87305e-13
1.17557e-12
1.44022e-13
-7.6428e-12
-7.92896e-12
7.51327e-12
8.17124e-12
-3.8554e-14
4.57184e-13
5.9157e-13
6.95001e-12
6.47532e-12
-3.86245e-13
-6.17026e-12
8.92289e-15
6.55197e-12
-5.90151e-12
5.26e-12
8.99161e-12
-1.47885e-12
6.94998e-12
-2.44373e-14
-6.78383e-12
2.51322e-14
1.06641e-13
-1.12642e-13
-2.33262e-13
1.78891e-13
5.29361e-12
5.02812e-12
0
5.4162e-12
-1.58993e-13
-6.19209e-12
1.50516e-13
-8.4705e-14
-3.65027e-14
7.37692e-12
-1.10218e-13
-6.80319e-12
-1.47907e-13
2.04518e-13
-9.37749e-14
-7.18254e-12
-8.39609e-13
7.02493e-12
3.70341e-13
-4.1586e-13
5.9275e-13
2.95836e-13
-1.47939e-13
-1.80239e-13
-5.65008e-14
2.81701e-13
-2.42233e-14
-8.4291e-14
1.16426e-15
-5.6541e-12
-2.94928e-13
5.62201e-12
2.95928e-13
-5.50371e-14
-3.86369e-13
-7.23966e-14
1.59585e-13
2.83285e-12
-6.90683e-15
-2.80041e-12
2.14659e-13
0
-4.51185e-12
-5.2285e-12
-6.3015e-13
1.00919e-12
-2.94419e-13
-9.08034e-13
2.11293e-13
-6.16031e-14
-8.47421e-14
-3.6957e-13
-7.38528e-14
-1.81912e-14
-3.02937e-13
5.83165e-12
-5.10184e-12
-6.18598e-12
5.01236e-12
4.64468e-13
2.36566e-13
2.2176e-13
-5.17546e-13
-9.48551e-14
-4.67463e-12
-1.86028e-14
-1.63397e-12
-5.26749e-12
6.47869e-12
5.5875e-12
1.97741e-13
2.21788e-13
-7.38254e-14
-5.69443e-13