/*--------------------------------*- C++ -*----------------------------------*\
  =========                 |
  \\      /  F ield         | OpenFOAM: The Open Source CFD Toolbox
   \\    /   O peration     | Website:  https://openfoam.org
    \\  /    A nd           | Version:  10
     \\/     M anipulation  |
\*---------------------------------------------------------------------------*/
FoamFile
{
    format      ascii;
    class       volScalarField;
    location    "0.3";
    object      gradTz;
}
// * * * * * * * * * * * * * * * * * * * * * * * * * * * * * * * * * * * * * //

dimensions      [0 -1 0 1 0 0 0];

internalField   nonuniform List<scalar> 
47104
(
5.96396e-13
7.45367e-13
4.46795e-13
-3.71779e-12
1.48558e-13
0
-1.4871e-13
-1.48928e-13
-4.47202e-13
-1.49091e-13
-2.9813e-13
-1.48935e-13
-1.32239e-11
-6.5129e-12
1.03349e-12
-1.47641e-13
1.03613e-12
6.24039e-12
-8.78686e-12
7.45291e-12
-6.70128e-12
2.9715e-13
2.36346e-12
-8.48731e-12
-1.45444e-13
-3.3452e-12
2.63398e-12
1.47714e-13
-2.97142e-13
-1.04238e-12
-7.4349e-12
-8.88062e-13
0
-3.02323e-12
-5.55728e-12
6.12724e-12
-2.87925e-13
1.02429e-12
-7.84434e-12
-8.32674e-12
2.97099e-13
0
3.19968e-12
1.28244e-12
1.40674e-13
-1.96943e-12
-1.56741e-12
0
2.95259e-13
-8.61543e-12
-6.98211e-12
0
-2.03618e-12
1.42493e-13
2.39144e-12
1.40673e-13
-1.99488e-12
-1.45438e-13
-1.683e-11
-6.98162e-12
-6.98951e-12
3.25645e-12
-3.07296e-12
-7.77388e-12
7.1245e-12
5.6996e-13
0
3.2192e-12
-1.21369e-11
7.5837e-12
0
-5.94332e-13
3.39739e-12
2.48749e-12
1.62885e-11
-2.90868e-13
1.46325e-13
-4.43135e-13
1.48576e-13
-7.44609e-13
0
7.44653e-12
6.8341e-12
-7.4e-13
-2.95246e-13
-5.90501e-13
-8.88035e-13
-9.21149e-12
-2.9786e-13
-1.53538e-11
0
-2.98113e-13
-7.44526e-13
-4.4605e-13
1.48533e-13
-3.26779e-12
-7.43458e-12
7.44574e-13
7.00593e-12
-1.49094e-13
5.58629e-13
8.76985e-13
9.55718e-12
6.56598e-12
-1.1265e-13
4.84061e-13
0
0
-5.97376e-13
-3.17536e-13
-1.91505e-14
-1.98262e-12
7.30623e-12
1.72891e-12
-1.90426e-12
-7.28893e-13
-1.28741e-11
-2.61664e-12
5.31175e-12
7.44723e-12
-6.56949e-12
3.85193e-13
-5.66148e-12
-9.19344e-12
0
2.95676e-13
-1.53882e-11
5.94152e-13
-3.04028e-12
-7.46501e-13
-7.16192e-12
1.97599e-12
-2.1648e-11
-2.63504e-12
5.23125e-12
-4.93625e-12
5.82403e-13
1.44363e-11
8.03641e-12
-8.95206e-13
0
2.2932e-12
-1.18314e-12
0
-1.63864e-11
-2.87092e-13
-1.18225e-11
-2.93228e-13
-1.26999e-13
1.49159e-13
-2.98352e-13
2.27941e-13
5.91341e-13
5.80729e-13
-1.80867e-11
-8.60039e-13
-7.77604e-12
1.58247e-11
-4.55263e-12
0
5.9693e-13
-1.41242e-11
2.95927e-12
8.73597e-13
-5.19031e-12
8.63998e-13
1.53239e-11
0
-5.13312e-12
-1.49214e-13
1.49339e-13
-3.1408e-12
-1.1883e-12
-5.89227e-13
-8.79664e-12
2.93044e-13
2.93557e-13
2.95743e-13
4.90715e-13
-7.46597e-13
2.98711e-13
-2.50629e-12
-1.52636e-12
-7.34528e-12
-2.2855e-12
5.6013e-12
-1.7683e-12
-4.44555e-12
-3.17961e-12
-8.21393e-12
-1.9143e-14
-8.38135e-12
9.25603e-12
1.4919e-13
-2.6184e-13
8.5199e-12
-9.13406e-13
7.46544e-13
7.20645e-12
3.82396e-14
7.64751e-12
1.33738e-13
2.54434e-12
4.3623e-12
1.93973e-14
-1.05693e-11
-5.47561e-13
4.27984e-12
4.28845e-13
1.94487e-14
-2.22329e-13
9.54835e-12
1.13542e-11
3.58875e-12
-1.25895e-11
1.49957e-12
-1.76629e-11
-1.01547e-11
1.22349e-11
-8.54651e-12
5.58877e-12
1.91206e-11
4.23799e-12
-3.93541e-12
-2.43533e-12
-4.87889e-12
1.06235e-11
-5.44597e-12
-1.62186e-11
9.75534e-14
1.32393e-13
2.99028e-13
2.17956e-11
1.05583e-06
9.67042e-07
9.83717e-07
9.03364e-07
1.4747e-08
5.12064e-12
3.65887e-13
-4.10689e-13
0
-7.30582e-12
9.66873e-07
-4.91372e-07
-5.0617e-07
-3.98425e-07
1.21255e-08
7.56407e-12
8.36353e-12
-6.87258e-13
-5.99818e-13
2.13449e-12
9.83684e-07
-5.06159e-07
-5.22218e-07
-4.0813e-07
1.20087e-08
1.39334e-11
6.61126e-12
7.14116e-12
-7.18507e-12
1.06235e-11
9.03412e-07
-3.9846e-07
-4.08142e-07
-3.29286e-07
1.37061e-08
1.0568e-11
-7.5449e-12
6.87207e-12
1.88169e-11
-1.21019e-11
1.47766e-08
1.21558e-08
1.20231e-08
1.37085e-08
-1.27639e-09
3.00638e-12
-3.13855e-13
1.25456e-13
-9.84811e-12
-2.70297e-12
6.62633e-12
9.07651e-13
1.21155e-12
5.73664e-12
-4.50936e-12
1.49559e-11
7.18622e-12
1.68665e-13
-8.98178e-13
8.37238e-12
4.81792e-13
6.68482e-12
1.0843e-11
7.25987e-12
-9.16264e-14
8.5333e-12
4.0866e-13
4.46548e-13
-3.43013e-13
-9.24558e-12
-7.48963e-12
-4.1776e-14
-3.28488e-13
1.81386e-13
-7.52046e-12
3.38516e-13
0
-8.72532e-12
-1.72306e-11
4.34824e-13
-4.65555e-11
-4.32064e-11
-5.95374e-11
-6.99915e-11
-1.41303e-11
-1.54334e-11
-4.12093e-12
-2.60464e-12
-3.5157e-12
5.06768e-10
-1.35435e-06
-1.0616e-06
-1.0425e-06
-1.07972e-06
-1.21464e-06
2.30492e-10
-1.08586e-11
9.5692e-14
-4.41956e-11
-1.35412e-06
-225.243
-293.882
-294.518
-292.986
-0.0653939
4.92661e-09
-2.20601e-13
7.21031e-14
-4.73477e-11
-1.06137e-06
-293.881
-407.191
-408.696
-404.883
-0.337715
-7.41586e-09
8.61759e-13
1.5395e-13
-6.36843e-11
-1.0426e-06
-294.518
-408.696
-410.284
-406.309
-0.339276
-6.26369e-09
1.17846e-11
-9.25686e-14
-4.16431e-11
-1.08064e-06
-292.986
-404.883
-406.31
-402.669
-0.338048
-1.02303e-08
5.32936e-14
9.18751e-14
-2.85556e-11
-1.2114e-06
-0.0654188
-0.337726
-0.33928
-0.338053
0.0188221
1.99324e-10
3.70007e-13
-4.91412e-14
2.96842e-13
1.97658e-10
4.89601e-09
-7.45213e-09
-6.3409e-09
-1.07789e-08
3.10711e-10
-1.48772e-11
-1.16922e-13
-2.97683e-13
8.54252e-12
-9.41405e-12
1.49538e-13
-6.90453e-12
-5.08702e-13
1.16544e-11
-2.49756e-13
9.22112e-12
0
-7.58193e-12
2.77937e-12
-1.90515e-12
-1.01495e-13
1.96249e-13
1.04306e-11
1.15415e-13
-4.12391e-12
-7.42217e-13
-1.93698e-14
-6.54593e-12
-1.48218e-12
1.19788e-13
5.85385e-11
6.1375e-10
5.85747e-10
6.4277e-10
-4.38854e-12
1.54032e-11
9.0356e-12
3.76427e-13
-1.70354e-11
1.17707e-09
0.00429437
0.0084128
0.00846826
0.0082935
-9.77065e-05
9.09089e-10
8.174e-12
-3.0985e-13
6.57815e-11
0.00428718
1.33188e-06
1.05779e-12
-2.25047e-13
6.00396e-10
0.00841145
2.59352e-06
-2.05832e-13
7.86726e-12
5.84883e-10
0.00846627
2.63118e-06
1.37239e-12
-5.11952e-14
5.71106e-10
0.00820307
2.4391e-06
7.69602e-12
6.68379e-13
8.29986e-12
-9.63269e-05
-8.95154e-08
-4.08455e-12
7.124e-12
2.96305e-13
8.83305e-10
1.32939e-06
2.59295e-06
2.62647e-06
2.32222e-06
-7.50615e-08
2.97986e-13
7.68878e-13
1.29189e-13
4.18246e-13
-8.21503e-12
8.29145e-12
-7.05927e-12
-1.66565e-13
3.0634e-13
8.78281e-14
-4.57665e-13
0
1.22841e-12
-3.54247e-13
3.54658e-13
2.86178e-13
-1.21284e-13
9.863e-14
-7.98544e-14
7.78253e-12
-2.77607e-13
-1.29363e-13
8.47813e-12
2.97265e-13
-4.92003e-14
7.58299e-12
1.37398e-10
1.26113e-10
1.35186e-10
1.56433e-11
-2.97749e-13
1.17132e-11
-1.64566e-12
5.20214e-13
-8.80159e-10
0.00016555
0.000263411
0.000256604
0.000259909
-2.68663e-06
7.29993e-11
1.09313e-11
-1.34062e-13
-2.62485e-12
0.000152537
8.02393e-08
-2.61936e-13
2.45885e-13
1.41476e-10
0.000261535
1.92196e-07
-8.45977e-12
-1.05808e-11
1.47713e-10
0.000257237
2.00597e-07
-1.18936e-11
4.99129e-13
1.57957e-10
0.000416322
1.70011e-07
-1.23379e-13
-3.40537e-13
-6.74498e-13
4.9386e-05
-6.45765e-09
1.0055e-11
1.83552e-13
2.97643e-13
1.15256e-10
8.21032e-08
1.92477e-07
2.03569e-07
3.57078e-07
-1.25325e-08
1.502e-12
2.61226e-13
-9.03989e-14
-9.66229e-12
-6.38251e-13
-7.57684e-12
1.52265e-11
8.28201e-12
-1.09297e-11
-4.39845e-12
-9.09774e-12
-1.09867e-13
-6.33856e-13
-1.75657e-11
-3.43429e-13
-1.1383e-13
-3.90129e-13
8.52959e-12
-7.41552e-12
-2.73152e-13
6.80706e-13
7.43833e-13
6.9246e-12
-2.38232e-12
-3.13135e-14
-3.50918e-12
2.7795e-11
5.12409e-11
4.52859e-11
-3.21164e-11
1.40213e-11
2.12289e-14
4.46961e-13
-2.04361e-13
-1.10268e-09
7.07229e-05
8.98179e-05
7.49943e-05
9.63762e-05
-5.94566e-07
1.56101e-11
-8.2855e-12
-3.98215e-13
-1.52076e-11
-2.21626e-05
1.16426e-08
1.3971e-11
-5.20527e-13
2.28199e-11
7.03668e-05
2.83776e-08
-4.20169e-14
4.47635e-13
3.13285e-11
7.57867e-05
3.01141e-08
-1.30325e-12
-8.64945e-12
3.97344e-11
0.000135928
2.46428e-08
-7.42035e-12
-7.06761e-12
-1.69186e-11
-2.75583e-06
-1.00989e-09
3.50578e-12
-7.12245e-12
-5.96606e-13
5.70687e-12
1.17363e-08
2.84624e-08
3.17309e-08
5.22923e-08
-3.79753e-09
-2.10792e-12
-3.85518e-13
4.07502e-13
2.85646e-13
-7.49459e-12
-8.26905e-12
8.68191e-12
4.04609e-13
4.78988e-13
1.15276e-13
-7.60658e-12
-3.87757e-14
-5.95434e-13
4.72275e-12
-5.20876e-13
3.3771e-14
-6.03214e-12
-9.27308e-13
1.49186e-13
-7.7287e-13
2.2632e-13
0
9.74719e-14
3.87395e-12
-4.30619e-13
-1.46315e-12
1.40534e-11
6.44607e-12
2.2511e-11
1.64503e-11
-2.86693e-11
-7.90501e-12
1.10323e-11
-1.39269e-11
-1.07173e-09
5.4256e-05
7.06845e-05
5.44466e-05
7.77973e-05
2.72494e-07
1.82833e-11
4.79796e-13
-5.87474e-14
-2.81158e-11
0.000612577
-1.41068e-09
5.53165e-13
8.31297e-14
3.22062e-12
-1.05266e-05
-3.5438e-09
7.63496e-12
1.76028e-11
1.25983e-11
5.41104e-05
-3.79106e-09
8.26509e-12
-3.4081e-13
-1.75405e-12
7.9804e-05
-3.29191e-09
-6.79542e-13
-2.27874e-13
2.77693e-11
1.77709e-07
2.37766e-10
-9.6405e-12
1.44648e-13
-6.27124e-12
1.22125e-11
-1.71351e-09
-3.77149e-09
-8.30544e-09
-1.46768e-07
1.45821e-08
-6.0263e-13
-3.73173e-13
-1.48836e-13
9.07685e-12
3.67188e-13
8.32704e-12
-1.50263e-11
-8.36286e-12
-2.72341e-13
4.09134e-12
-5.50181e-13
-5.9548e-13
1.48904e-13
1.45022e-11
1.77145e-13
-8.60954e-12
-6.93485e-14
-8.47622e-12
7.17285e-12
-3.75406e-14
1.00244e-11
-5.9559e-13
-1.0135e-11
-2.11634e-11
9.20962e-13
3.80441e-12
-5.47496e-11
-8.11598e-11
-8.50745e-11
1.56249e-12
1.43367e-11
-4.85065e-13
-9.37848e-12
1.51226e-11
-9.81563e-11
3.28352e-05
-2.20786e-05
-4.37384e-05
-9.09798e-06
1.2735e-06
-3.9176e-11
7.25884e-12
-7.33261e-12
2.84147e-11
-0.000309386
-7.23888e-08
1.96058e-12
3.68069e-13
-5.44526e-11
4.86009e-05
-1.91349e-07
9.58082e-14
-7.41442e-12
-4.68757e-11
-4.2017e-05
-1.98844e-07
-8.95639e-13
9.2174e-12
-5.43764e-11
-8.69175e-06
-1.65096e-07
3.61469e-13
7.05362e-12
3.8157e-12
1.08416e-06
3.98525e-09
3.74545e-12
-2.14362e-13
2.38941e-11
-4.83543e-11
-7.24824e-08
-1.91256e-07
-1.95615e-07
2.90376e-08
-8.18535e-09
3.01295e-13
7.16343e-15
-2.97783e-13
4.08131e-15
1.05169e-11
9.46366e-12
-8.54974e-12
3.844e-14
-1.18922e-11
-1.02664e-11
-9.75179e-14
-1.48925e-13
-4.46784e-13
-4.29197e-12
2.96919e-13
7.3733e-12
5.73796e-12
7.34186e-12
1.35365e-13
-4.99237e-13
2.87689e-13
-2.97877e-13
4.31995e-13
2.02695e-11
-1.29259e-12
1.05799e-10
1.07716e-10
1.53328e-10
5.09871e-11
-1.26881e-12
2.98661e-13
-3.57769e-12
1.3292e-13
3.35042e-13
-1.59484e-09
-0.00276208
-0.00641068
-0.00648273
-0.00629126
5.07579e-05
-1.89326e-10
-2.38523e-13
2.40101e-13
3.48787e-11
-0.00259266
-8.63396e-07
-3.09756e-13
5.54329e-14
1.0183e-10
-0.00638807
-1.34749e-06
8.74028e-12
-7.30423e-12
1.33931e-10
-0.00648663
-1.37417e-06
-7.38089e-12
-7.26215e-12
3.69204e-11
-0.00629285
-1.27873e-06
-8.45119e-12
1.38597e-13
-1.40543e-11
5.07344e-05
4.45771e-08
-1.96308e-13
-4.92563e-13
-1.7023e-11
-1.79745e-10
-8.63561e-07
-1.3474e-06
-1.37223e-06
-1.25897e-06
4.17555e-08
-3.01167e-13
1.87283e-13
-2.9786e-13
4.93315e-13
-1.58414e-12
8.30693e-12
-1.51088e-13
1.38333e-14
3.78391e-13
6.37034e-13
-3.21996e-14
8.9377e-13
1.07229e-11
6.85864e-12
6.3599e-13
8.54589e-12
1.3071e-12
5.16865e-14
-5.83871e-14
-5.54252e-13
-9.79306e-12
1.48955e-13
1.79695e-11
-5.96154e-13
5.76372e-13
-1.87901e-11
1.47103e-12
3.00773e-14
-2.93707e-13
4.1963e-13
1.79128e-12
8.49301e-13
9.3048e-12
-1.83567e-11
1.92149e-10
4.12593e-06
3.05327e-06
2.99124e-06
3.12302e-06
3.71779e-06
7.5027e-11
-1.49247e-11
7.73796e-12
0
4.11239e-06
-3.5419e-09
-9.1078e-12
-2.3687e-13
-5.88438e-13
3.06767e-06
-4.29541e-09
-2.44967e-13
7.77517e-12
-1.64952e-11
3.02514e-06
-4.20419e-09
4.45017e-13
-2.39776e-13
1.46859e-12
3.13909e-06
-4.55755e-09
-7.24292e-12
-1.52065e-11
2.99363e-13
3.74443e-06
2.09691e-09
-1.5226e-11
1.54849e-13
-2.00016e-11
6.38623e-11
-3.54289e-09
-4.28228e-09
-4.18687e-09
-4.55147e-09
2.12397e-09
6.02208e-13
-3.01349e-13
-7.44725e-13
-8.79779e-12
-1.42194e-11
-1.63787e-11
-1.56745e-13
-1.11525e-13
1.12711e-11
-1.33734e-13
-7.24885e-12
-1.48971e-13
-1.48915e-13
-8.39312e-12
7.3271e-12
-7.22793e-12
-7.53368e-12
-6.37278e-12
-7.10481e-12
1.68007e-12
-7.52914e-13
-1.4895e-13
1.15478e-13
0
3.14863e-11
-2.92924e-13
-8.78809e-13
-7.03665e-12
-8.77681e-13
4.27768e-13
-2.09044e-11
-4.15161e-12
8.41272e-14
1.82572e-11
-1.22628e-12
3.36628e-11
1.76406e-12
-2.35599e-12
5.87198e-13
-1.16026e-11
-3.97292e-13
-1.27752e-11
1.03812e-13
-1.64002e-11
-3.5655e-11
1.76018e-12
-2.70376e-13
1.1571e-11
0
4.23238e-11
-1.63665e-11
-8.48389e-12
-2.26139e-13
0
4.71372e-12
4.22217e-11
-8.2657e-13
1.77869e-11
1.3751e-11
6.80832e-11
1.31539e-11
-1.14951e-12
-1.40082e-12
1.13517e-11
4.50989e-11
-1.47941e-12
3.3475e-13
-6.09167e-12
2.00163e-11
-5.50155e-12
1.70533e-12
1.42165e-11
-1.38217e-11
7.31129e-14
1.86336e-12
0
-8.73193e-12
1.48938e-13
1.96529e-14
1.19072e-12
-7.88218e-12
7.32104e-12
6.44577e-14
-5.34719e-13
8.61313e-12
-8.72712e-13
-1.10136e-13
-1.04232e-11
-7.6967e-12
-4.60867e-13
2.5522e-13
-1.69788e-12
-3.49639e-13
6.90295e-12
-6.88199e-12
1.81575e-13
-1.93487e-14
-8.78847e-12
0
-3.00991e-11
2.92849e-12
-5.85626e-13
-6.15447e-12
5.84878e-13
-2.33638e-13
3.3751e-11
-1.34296e-12
4.64956e-13
-5.18843e-13
-1.83876e-12
4.68473e-12
3.11478e-11
5.90812e-13
3.41493e-11
1.90583e-12
-2.59579e-11
7.49396e-12
-6.71915e-12
1.72696e-11
2.59834e-13
1.41643e-13
-1.08034e-11
9.33033e-13
-2.92816e-13
7.8495e-11
-1.56212e-12
-8.11278e-12
-7.04418e-14
-2.93059e-13
2.65837e-11
-1.98152e-11
-1.1657e-12
5.86741e-13
-1.31593e-11
-5.2985e-12
1.35125e-12
7.18406e-12
-2.0002e-12
-1.08681e-11
-1.46444e-13
2.17189e-11
1.14442e-11
-2.11315e-13
1.64268e-11
9.0306e-13
3.26638e-13
-1.45876e-11
1.54287e-11
-6.03607e-14
-2.2492e-12
1.75253e-13
-1.01726e-11
8.93536e-13
8.94794e-12
2.26797e-11
1.73891e-11
-1.0625e-11
-2.18859e-14
-3.02225e-13
1.04112e-11
7.39087e-12
-1.23032e-12
-7.44475e-13
9.03031e-12
-7.42877e-12
2.69121e-14
8.80384e-12
2.87039e-13
6.88331e-12
-2.26968e-13
-6.72037e-12
-6.55295e-12
2.67449e-13
0
-1.1401e-12
1.46388e-11
1.93289e-11
1.37766e-11
2.92478e-13
-2.08663e-13
-1.4636e-11
7.92177e-12
1.43895e-13
-1.96452e-11
6.12541e-13
5.42173e-12
-1.45404e-12
-2.65941e-11
-5.88924e-13
-3.01161e-11
2.56165e-11
5.69227e-12
9.33601e-12
5.85467e-13
5.5745e-13
3.93971e-13
-1.36575e-13
-4.65539e-12
0
6.45656e-13
-5.10908e-12
-1.07807e-13
-4.86324e-14
-1.17243e-12
0
1.65953e-11
3.60571e-13
-1.08329e-11
-1.55004e-11
2.76775e-11
2.70341e-12
1.02301e-11
1.4398e-12
-1.68019e-12
3.32244e-11
-3.22163e-12
-7.28213e-13
7.0014e-12
-1.52313e-11
-1.03854e-12
-1.28723e-12
-1.69848e-11
-2.34753e-11
-7.4272e-12
4.66505e-14
-1.20558e-12
8.62085e-12
1.4891e-13
-2.88815e-13
-1.83207e-13
-1.482e-12
-3.66869e-13
-7.88135e-14
6.65372e-13
-9.05983e-12
6.57213e-13
-9.9784e-12
-2.97787e-13
6.80082e-13
-2.30338e-14
-2.04199e-13
9.8125e-14
-1.94966e-13
-6.67462e-12
7.55444e-12
-1.43101e-13
1.93542e-14
-3.53779e-13
-5.96202e-13
-3.40366e-13
-1.81597e-11
-2.19615e-11
-2.93082e-13
1.25753e-11
-7.98945e-12
5.97323e-13
7.28388e-13
-5.40258e-13
2.02808e-11
0
-1.01766e-13
-5.89841e-13
5.90948e-13
7.06675e-12
-3.60527e-11
2.7444e-13
-5.89804e-13
-1.40248e-12
-1.69784e-11
2.66078e-11
1.53148e-11
2.17774e-12
-5.27556e-13
1.46411e-12
-3.50523e-11
2.29194e-11
8.39943e-12
6.04078e-15
-1.81699e-11
1.18188e-12
-1.59372e-11
-3.86991e-12
-1.41064e-13
1.37436e-11
0
-2.09995e-11
1.16375e-13
6.70463e-13
5.02518e-13
-4.6158e-12
-4.72196e-12
1.77392e-13
-5.40811e-14
-2.68862e-12
-3.8727e-13
1.04887e-12
-3.34816e-12
2.38196e-11
1.93072e-11
-2.3562e-13
-1.68783e-11
9.97348e-12
-4.4673e-13
-3.6702e-14
-1.11046e-11
-9.85301e-12
3.23931e-12
-8.10531e-12
1.2667e-12
-5.20942e-13
7.1967e-14
-9.085e-12
7.4452e-13
-7.30244e-14
-1.67561e-13
-1.4242e-13
-1.36345e-13
-2.25437e-13
-2.36247e-13
-3.57478e-13
1.58545e-11
6.55361e-12
-8.43236e-12
1.19218e-12
-3.03414e-13
2.63561e-12
0
0
-1.28672e-11
8.3558e-12
2.98561e-13
4.66599e-13
-3.91139e-12
-1.01995e-12
1.84493e-12
3.32813e-11
4.00719e-11
0
5.88382e-13
-1.22427e-12
2.55408e-12
7.29905e-12
-9.39162e-12
3.77711e-11
1.38001e-12
-1.51707e-11
2.15631e-13
-7.75331e-12
1.17118e-12
5.89295e-13
3.36903e-13
-5.65662e-13
-5.15943e-13
3.36999e-11
3.18788e-11
-8.0447e-14
7.2802e-13
-2.50094e-13
-2.13454e-11
5.29442e-12
1.69464e-11
-1.15204e-13
4.66962e-14
1.79373e-11
-4.36118e-11
9.24994e-12
1.10098e-13
6.50709e-13
1.19453e-12
1.49867e-11
8.51614e-13
2.13022e-11
-2.11709e-12
5.8897e-12
-1.36505e-11
3.85588e-11
1.94027e-13
2.7844e-13
9.19948e-12
1.44832e-13
-6.78969e-12
4.63823e-14
4.69199e-13
-3.20445e-13
6.84405e-12
-1.82755e-14
9.97973e-12
4.46798e-13
-2.12322e-13
-4.54987e-13
2.01375e-13
-1.2205e-13
1.48426e-13
1.21013e-13
-6.58452e-12
3.13095e-14
-5.9783e-12
7.80857e-12
1.43047e-11
-1.49987e-12
-1.46644e-12
5.87719e-13
0
-2.93392e-13
-1.47122e-12
8.95401e-13
-3.33873e-13
3.23675e-14
1.21437e-13
-6.10411e-13
2.6109e-11
-3.84043e-11
-5.91663e-13
-3.1278e-11
-4.01085e-11
-4.02879e-12
5.8806e-13
1.92323e-11
-2.14078e-11
-4.0037e-11
2.0022e-11
8.84263e-12
-5.04248e-13
-1.46921e-12
-5.90833e-13
-1.49458e-11
-3.16251e-14
-6.88371e-13
-1.38229e-11
1.18331e-12
1.66011e-11
1.65819e-11
-5.72305e-13
2.08297e-11
-1.1802e-12
9.87609e-13
-6.37563e-13
7.86929e-12
-1.79575e-11
2.82121e-11
1.36907e-11
-3.02316e-13
1.32742e-13
-5.96863e-13
-1.31677e-11
2.04231e-11
2.37897e-11
-6.69073e-14
-1.75844e-11
1.3525e-11
-1.92575e-11
2.84354e-13
-5.76403e-13
-8.56084e-12
-6.95514e-12
-4.56316e-13
6.92613e-12
7.80202e-12
-6.80753e-13
4.5855e-13
6.10558e-13
1.02798e-11
1.48953e-13
6.05093e-13
7.92342e-13
1.0069e-13
1.51479e-13
3.99532e-13
-6.533e-12
7.23688e-12
-9.19158e-12
3.17312e-13
2.13749e-11
-1.58031e-11
5.0318e-13
-5.8696e-13
2.93901e-13
-1.58846e-11
2.93462e-13
3.94364e-13
-1.19487e-12
-3.96989e-13
3.79644e-12
-3.81856e-13
-6.13792e-13
-9.50257e-13
2.87871e-11
-1.03474e-12
-2.88545e-11
-1.58836e-11
8.59695e-12
9.11887e-13
1.76579e-13
5.86881e-13
1.46737e-12
-4.11446e-11
1.78191e-13
8.65513e-14
-1.17554e-12
2.48119e-11
2.95011e-11
3.33613e-13
-7.75843e-12
-3.23563e-12
6.96816e-13
-1.66813e-11
6.3601e-12
-1.97899e-13
5.86907e-13
-2.8131e-12
7.22754e-14
-2.78331e-13
-8.09988e-12
6.5886e-12
-7.27686e-11
-4.04003e-14
-1.17908e-11
-7.35221e-13
-1.31439e-11
-4.22337e-12
-3.59575e-11
-5.48542e-12
1.98792e-11
7.96188e-13
2.79986e-13
1.89891e-11
-9.92829e-12
1.48979e-13
-9.2383e-12
-1.04303e-13
-3.51933e-12
-5.37143e-13
1.43767e-14
1.07349e-13
-6.74426e-12
-1.92417e-13
3.36853e-13
-5.95802e-13
2.6233e-13
7.68596e-12
-6.91085e-12
-3.41302e-13
-6.717e-12
-1.19788e-13
6.87751e-12
6.28934e-14
5.79058e-12
-7.89808e-12
-2.98181e-13
-6.26956e-13
-1.96246e-11
2.92838e-13
1.49473e-11
2.92471e-13
-2.23697e-11
1.85177e-11
1.10948e-12
2.02423e-13
1.09162e-13
6.13609e-13
3.89859e-12
0
-3.53873e-12
-3.70328e-11
1.11479e-12
1.88829e-11
7.3209e-12
-1.1151e-11
1.43505e-11
-9.20364e-13
2.20755e-12
-2.31816e-13
9.1836e-13
0
-1.17751e-12
-1.53779e-11
1.88672e-13
4.09327e-13
3.22381e-12
1.17957e-12
1.09629e-12
-1.15115e-11
-7.52529e-12
-2.92457e-13
-2.70395e-11
6.28765e-13
-1.04474e-11
8.25591e-13
-5.50834e-12
-9.88159e-14
-1.60049e-11
-6.60035e-12
1.09765e-13
-2.68807e-12
4.90106e-13
1.51979e-11
-1.92063e-11
-4.01297e-11
-9.24567e-12
-1.71975e-12
-4.21938e-11
-4.0061e-13
2.97938e-13
8.08381e-12
6.94993e-12
4.06702e-13
1.05286e-11
-6.54084e-13
6.85166e-12
1.01636e-11
-2.59612e-13
-3.88352e-14
-7.29923e-12
1.74971e-13
-7.61532e-13
-5.4819e-13
-5.26176e-14
7.50235e-12
6.75611e-12
-7.27641e-12
-1.85162e-13
-1.29651e-13
-2.1426e-11
1.49084e-12
-3.50346e-13
1.99164e-11
0
-1.52404e-11
-1.43302e-11
4.14282e-11
-3.88281e-12
1.07666e-11
-3.44296e-13
1.81713e-12
-1.84062e-12
-1.5112e-13
-4.2586e-13
-3.5453e-12
1.17752e-12
-3.968e-11
-1.76919e-11
-6.1733e-13
7.94495e-12
-3.42641e-11
7.28705e-13
1.8848e-11
3.35822e-13
7.08151e-13
2.10832e-11
-3.58676e-12
9.72189e-13
7.03014e-14
8.25626e-12
-8.79206e-13
-2.65895e-11
-5.14969e-13
1.43436e-13
8.28965e-14
2.04698e-11
5.88729e-13
9.41628e-14
3.16945e-13
8.30761e-12
-1.44226e-13
-3.83398e-11
3.39507e-11
2.12891e-11
-5.07014e-14
1.58316e-11
-3.763e-12
9.63196e-13
2.08882e-11
1.98873e-11
-1.16051e-11
1.73831e-12
2.32106e-11
2.36645e-11
0
-1.13403e-13
-6.20966e-12
1.10525e-11
6.87542e-12
4.25534e-14
-2.37777e-13
1.24888e-13
-7.67625e-12
0
1.49022e-13
6.90771e-12
-7.6801e-12
6.42224e-12
2.35297e-13
6.24933e-12
1.2865e-13
0
1.71529e-13
-8.34542e-12
9.92747e-14
-2.9821e-13
-6.17146e-13
2.92764e-13
-2.92877e-13
1.64143e-11
1.46234e-11
-1.99904e-11
-1.37395e-11
-6.8949e-13
7.42892e-12
-1.15472e-12
0
1.65992e-12
6.85348e-11
5.90946e-13
-5.88847e-13
-2.15244e-12
1.65128e-12
-7.61678e-12
4.58576e-14
2.04912e-11
-1.72087e-12
-2.03433e-13
-8.47417e-14
1.01908e-11
-1.81567e-11
-7.97366e-13
-1.43738e-12
9.42969e-12
-1.24315e-13
2.93096e-13
2.36375e-12
1.71165e-11
-1.09006e-12
-1.93506e-12
-2.01787e-11
4.00368e-11
1.28364e-12
2.22116e-12
-7.85983e-14
1.76916e-11
3.63913e-11
-1.79848e-11
9.3678e-12
9.81282e-13
0
1.86944e-11
-7.39933e-13
-2.06225e-11
-2.00847e-12
1.92349e-11
-1.52741e-12
6.02849e-13
1.55213e-11
1.49017e-13
4.4667e-13
-6.76081e-12
-7.97735e-13
-1.0059e-11
8.25756e-13
-6.56326e-12
-9.30291e-12
-6.00497e-14
6.35138e-13
7.00936e-12
-6.46e-13
-1.31185e-13
2.84032e-13
-1.64332e-13
-7.71389e-12
1.87796e-13
3.7623e-14
-1.46395e-13
-1.00112e-11
8.73076e-12
-1.49158e-11
1.73191e-11
-2.92751e-13
-1.55212e-11
-1.17229e-12
5.84882e-13
-6.08151e-13
-2.98835e-13
-1.97393e-11
1.36959e-14
2.29428e-13
-6.13689e-13
3.05683e-11
1.50026e-13
0
1.76573e-12
-1.29496e-12
-1.72425e-12
-3.5889e-14
-1.43304e-11
0
-6.26369e-11
-3.27937e-13
-6.49107e-13
-1.66265e-12
1.20054e-11
3.95046e-11
-7.86488e-12
-9.34962e-14
1.15325e-13
0
3.60321e-11
-1.72985e-11
-6.63729e-12
-1.67681e-13
0
1.76569e-12
-5.92097e-13
8.72635e-13
4.68829e-13
-1.78556e-11
-1.47764e-13
4.99511e-13
-9.50095e-12
-7.79457e-12
-2.98826e-13
-2.97877e-12
-8.2548e-14
1.41394e-11
-1.82879e-11
-1.93573e-11
-5.14957e-13
-3.31464e-12
-1.41261e-11
6.69093e-12
3.62376e-13
6.07916e-12
7.88746e-12
-6.0722e-12
-3.90948e-14
-3.12588e-13
2.27297e-13
1.60729e-11
1.10182e-13
0
-7.25824e-12
7.25379e-12
8.92128e-13
1.37105e-13
3.4306e-15
-9.88578e-12
-4.23003e-13
1.86049e-13
7.93006e-12
3.02071e-14
2.71696e-11
-1.74517e-11
1.76015e-11
1.58557e-11
-5.87659e-13
-5.86412e-13
1.00505e-12
-2.98995e-13
-3.36582e-13
-7.31828e-12
9.02687e-14
3.06436e-12
4.51801e-11
-5.87545e-13
3.82476e-11
3.87149e-11
2.62246e-11
-1.36686e-11
7.00218e-12
-6.96268e-12
-5.86795e-13
-2.75938e-11
-2.28789e-11
3.87008e-13
-1.05774e-11
-3.08276e-11
3.23119e-11
7.24421e-12
-9.31035e-12
-1.2913e-11
5.87665e-13
-1.76526e-12
-2.12157e-11
8.71558e-12
1.03784e-11
7.91676e-12
2.52233e-11
-4.58301e-13
8.58946e-12
-9.40326e-13
-3.59904e-13
1.30036e-13
-2.99458e-14
-3.3046e-12
-9.83677e-12
2.98972e-13
7.68298e-12
2.25658e-11
-1.446e-11
2.07612e-11
2.01347e-11
2.13847e-11
1.83753e-11
-2.36833e-11
1.68698e-13
3.56166e-13
-9.97886e-13
-4.86774e-13
-5.77388e-14
-1.3843e-13
1.70222e-13
-7.2073e-13
9.54888e-13
-7.46461e-13
-7.01365e-12
-1.30082e-11
-1.00877e-11
-8.24972e-14
-2.39851e-13
1.27542e-13
2.54925e-13
8.66746e-12
2.62888e-13
1.0594e-11
-1.5309e-14
-1.34413e-11
-1.91115e-11
-1.66274e-11
1.42902e-11
8.93643e-13
8.91953e-13
-5.94261e-13
1.49546e-12
1.91036e-12
-9.22876e-15
-3.37968e-13
1.22409e-12
-3.63314e-11
-1.17702e-11
3.0834e-11
3.12106e-11
-8.10976e-11
1.12968e-11
7.2167e-12
6.4468e-12
5.93939e-13
-2.0882e-11
2.26632e-11
-5.77474e-13
1.62642e-12
1.42911e-11
3.28947e-11
6.01217e-13
9.1245e-12
4.48919e-13
0
4.11954e-11
4.51287e-12
3.46466e-13
4.85709e-13
-7.43422e-12
5.51699e-13
-2.12871e-11
-1.59224e-14
1.91639e-12
-1.18867e-12
-4.61154e-11
5.30011e-13
1.84765e-12
7.2038e-12
5.98091e-13
-2.92171e-11
-2.3098e-11
-2.02786e-11
2.04598e-11
1.13934e-11
-7.12679e-12
-1.59775e-11
-1.85927e-14
-7.31018e-12
-1.45435e-13
1.35859e-14
-8.21656e-12
6.91139e-12
-4.79277e-13
7.12967e-12
-5.60818e-13
-8.47767e-12
-1.49232e-13
1.48886e-13
6.19381e-14
-1.14366e-11
1.86515e-14
-4.44862e-12
-9.07663e-12
9.93999e-12
9.51917e-12
7.22809e-12
8.01956e-12
9.28294e-13
-1.51796e-11
4.29106e-11
-1.00423e-12
-1.4238e-11
1.21671e-11
-5.92934e-13
-7.41021e-12
-1.72509e-11
-8.82741e-12
4.35373e-14
5.94406e-13
6.28275e-12
-5.89365e-13
-4.13644e-12
-1.18216e-12
2.05927e-13
-4.23358e-11
3.2337e-12
-6.9386e-12
7.45709e-12
-4.40505e-13
-1.10722e-13
8.20418e-13
4.29606e-13
-6.2826e-12
-8.37731e-12
5.71361e-13
-4.18213e-13
-8.27574e-12
2.89413e-13
1.61724e-12
-5.91114e-13
-4.71721e-12
1.82589e-11
-5.85113e-12
2.04533e-12
0
-7.71021e-12
1.62656e-13
3.84007e-12
-1.42473e-11
-5.46453e-12
-1.00601e-12
-5.316e-13
5.00474e-12
-4.56858e-13
5.81331e-13
1.71025e-11
-8.78418e-12
6.65145e-13
-5.93058e-13
-2.70361e-11
1.98978e-11
-1.94917e-11
1.12713e-11
-9.53648e-12
5.76854e-13
2.07343e-11
-2.25333e-13
9.61635e-12
5.92908e-13
1.70541e-11
3.42397e-12
-4.82674e-11
-1.16408e-12
1.74496e-12
3.52051e-11
-2.52137e-13
1.01065e-12
9.52935e-12
1.48713e-12
2.52491e-11
-3.62889e-13
2.00708e-11
-2.04668e-11
-1.24424e-11
-1.65601e-11
0
9.2189e-12
-8.95004e-12
2.96667e-14
3.91487e-12
-1.21494e-13
8.3312e-12
7.78293e-14
3.74866e-13
-1.384e-12
-1.01924e-11
2.0843e-12
8.61132e-12
1.36506e-11
1.03719e-11
-3.70046e-12
-9.25362e-14
1.47987e-13
-5.92067e-13
-8.52159e-12
9.09254e-13
9.09615e-13
0
2.85055e-12
-1.12643e-11
8.44957e-14
-5.90751e-13
7.85738e-13
-1.27365e-12
6.79785e-12
-3.48157e-12
7.26941e-12
6.22315e-12
3.08344e-13
-2.94682e-13
-1.59732e-11
-2.94155e-13
-8.57519e-13
0
5.87926e-13
1.3572e-13
-7.40735e-12
-7.40081e-12
4.66527e-12
2.93731e-13
5.87089e-13
-1.79795e-11
1.86824e-11
1.50162e-11
-1.46492e-12
5.18195e-13
2.95991e-13
-1.4798e-13
-1.01875e-11
-2.19838e-15
4.88375e-12
-1.82111e-12
1.10676e-13
-4.16629e-12
1.91183e-13
-5.69347e-12
-8.87782e-12
-1.47981e-13
2.8586e-12
1.56015e-11
3.59742e-12
2.57677e-12
-4.9251e-12
-1.92366e-12
1.37216e-12
6.47307e-12
1.47966e-13
-5.92074e-13
1.1036e-12
2.23469e-11
-5.07563e-12
1.81492e-11
0
-9.44644e-13
-8.75189e-13
3.66941e-13
-4.44021e-13
5.31246e-12
2.95586e-13
1.48839e-11
-8.79818e-13
2.52055e-13
-3.49919e-13
3.21426e-11
-2.05129e-11
-2.94933e-13
-1.55531e-12
-2.96747e-13
-5.38241e-12
-8.8635e-13
1.0352e-11
2.94883e-13
-9.18976e-12
1.61144e-11
-2.65243e-12
-3.55375e-12
4.45155e-13
3.15774e-13
-1.29392e-13
-3.48886e-13
0
-6.90133e-12
4.43925e-13
-6.51193e-12
1.48151e-13
-2.96721e-13
2.96927e-13
-1.48202e-13
2.96244e-13
1.02128e-11
1.47935e-13
4.88148e-12
8.87499e-12
0
-1.68747e-11
-8.14672e-12
-8.44719e-12
-1.18496e-12
-9.02673e-12
9.46024e-12
6.94354e-12
-5.79811e-12
-8.57022e-12
1.68417e-11
3.54637e-12
1.19861e-11
8.59051e-12
-6.8083e-12
0
-2.91381e-12
-3.50363e-12
-1.47659e-13
4.76219e-12
-4.42581e-13
-3.83587e-12
-6.94669e-12
0
-7.24823e-12
-2.95463e-13
-2.02816e-12
-7.16308e-12
-6.69856e-12
-9.77027e-12
-4.65372e-12
-1.13233e-11
-1.47739e-13
8.4314e-12
5.91588e-13
-7.53472e-12
-5.34852e-12
0
9.64149e-12
1.26071e-11
3.62689e-12
2.36278e-12
-2.95539e-13
1.1832e-12
9.31749e-12
-1.47734e-13
-5.71663e-12
-9.46343e-12
-7.12036e-12
7.41631e-13
-1.92443e-12
-7.01433e-13
-8.42289e-12
2.95807e-13
2.9585e-13
-1.92019e-11
-8.25554e-12
1.13655e-11
3.51707e-12
-9.66055e-12
-4.94929e-12
5.93789e-12
-7.53418e-12
0
-8.73281e-12
2.65961e-12
2.39691e-12
-2.98615e-12
-1.6982e-12
-2.1413e-12
-3.61471e-12
3.20888e-12
-2.03175e-12
7.40097e-12
2.96229e-13
-9.32247e-12
-6.20568e-12
-7.09012e-12
9.63885e-12
9.89994e-12
0
9.75507e-12
1.13942e-11
-4.44366e-13
8.89126e-12
0
2.66411e-12
-1.47926e-13
-8.28325e-12
-7.83903e-12
-8.87535e-13
-7.5114e-12
2.09218e-11
-2.07477e-12
5.77402e-12
-5.9202e-13
1.47947e-13
4.28929e-12
-7.39478e-13
-1.47896e-13
1.4791e-13
-5.91807e-13
-5.92028e-13
-1.33246e-12
-8.88015e-12
-1.00597e-11
7.39324e-13
2.95663e-13
0
-8.87029e-12
1.47835e-13
1.47871e-13
7.10104e-12
0
-1.40543e-11
-7.98445e-12
-2.95575e-13
-6.65013e-12
-6.7999e-12
-1.61131e-11
1.47788e-13
1.6405e-11
1.47862e-13
0
6.21154e-12
-7.53867e-12
-1.47768e-13
3.69551e-12
1.47924e-13
-1.06509e-11
0
2.95578e-13
-1.47829e-13
1.03529e-12
-9.1683e-12
1.04946e-11
-4.4337e-13
-2.95797e-13
-9.77155e-12
2.96117e-13
-1.4793e-13
-7.53927e-12
1.64095e-11
4.43658e-12
-1.47875e-13
8.27726e-12
9.01488e-12
2.95791e-13
1.48054e-13
0
6.80479e-12
-4.43485e-13
0
6.95074e-12
1.47893e-13
1.4781e-13
1.89118e-11
-1.47804e-13
0
-2.95862e-13
-7.53994e-12
-1.47787e-13
9.01776e-12
0
-7.54488e-12
-1.47854e-13
1.47768e-13
0
-9.60839e-12
-1.33045e-12
1.09365e-11
-7.38965e-13
-7.39345e-13
-5.91795e-13
0
1.47931e-13
-5.91425e-13
-8.13023e-12
-1.47833e-13
1.47834e-13
-1.13829e-11
-4.43589e-13
-7.69278e-12
-4.44018e-13
0
4.4399e-13
4.43817e-13
1.47899e-13
-1.47888e-13
1.29569e-13
3.23532e-12
-1.85133e-13
1.11035e-13
2.96102e-13
6.95459e-12
5.91782e-13
-6.65622e-12
1.47896e-13
1.331e-12
-5.91561e-13
0
7.2481e-12
8.87693e-13
1.47972e-13
-2.95886e-13
0
7.39417e-13
-6.802e-12
7.39359e-12
-6.80216e-12
-7.54157e-12
-4.43667e-13
-4.43754e-13
0
7.24757e-12
-7.39395e-13
2.95708e-13
-7.24495e-12
-4.43625e-13
-8.72477e-12
-7.24529e-12
6.80165e-12
6.50696e-12
2.95828e-13
7.3942e-12
7.39291e-13
-2.95695e-13
9.46407e-12
6.65634e-12
4.14183e-12
4.58454e-12
9.01962e-12
-7.3935e-13
-7.39462e-13
-7.39363e-13
7.39265e-12
7.54066e-12
2.95813e-13
-1.76082e-11
-1.27257e-11
4.43772e-13
5.91512e-13
-1.4787e-13
-1.47885e-12
1.47872e-13
0
-2.95707e-13
4.43713e-13
0
-1.03582e-12
-2.95848e-13
-8.28117e-12
0
9.46469e-12
-1.47882e-13
9.61051e-12
7.83552e-12
1.47869e-13
1.00583e-11
9.76287e-12
1.86339e-11
-5.9145e-13
7.98507e-12
2.95791e-13
1.47907e-13
0
-2.95691e-13
9.01873e-12
-5.91484e-13
-1.02034e-11
-1.47862e-13
0
0
-7.24798e-12
-1.47939e-13
9.46617e-12
8.57686e-12
5.91452e-13
-1.00549e-11
-1.62656e-12
-5.9148e-13
1.47885e-13
-7.39588e-13
-3.69869e-12
1.47964e-13
0
1.4791e-12
-1.47889e-13
0
7.70839e-12
1.34941e-12
8.87486e-12
-1.15398e-11
-2.95943e-13
-4.43766e-13
1.03536e-12
1.47892e-13
-2.95763e-13
2.21818e-12
2.9576e-13
-2.9577e-13
5.91586e-13
0
1.47926e-13
9.61387e-12
1.03524e-11
-8.87275e-13
-7.39376e-13
7.68966e-12
1.92244e-12
-8.87279e-13
1.47885e-13
-6.9512e-12
2.95821e-13
7.2464e-12
6.95013e-12
-4.43609e-13
-5.91511e-13
6.80298e-12
-2.51419e-12
-7.54211e-12
-9.31634e-12
-4.4365e-13
2.95786e-13
2.07019e-12
4.43596e-13
-2.95742e-13
-1.47895e-13
9.61489e-12
1.03547e-11
1.47905e-13
-2.95768e-13
-8.87265e-13
-7.39405e-13
9.16753e-12
-4.43588e-13
7.39387e-13
2.95827e-13
7.39747e-13
-2.95908e-13
4.43779e-13
7.6905e-12