/*--------------------------------*- C++ -*----------------------------------*\
  =========                 |
  \\      /  F ield         | OpenFOAM: The Open Source CFD Toolbox
   \\    /   O peration     | Website:  https://openfoam.org
    \\  /    A nd           | Version:  10
     \\/     M anipulation  |
\*---------------------------------------------------------------------------*/
FoamFile
{
    format      ascii;
    class       volScalarField;
    location    "0.3";
    object      gradTy;
}
// * * * * * * * * * * * * * * * * * * * * * * * * * * * * * * * * * * * * * //

dimensions      [0 -1 0 1 0 0 0];

internalField   nonuniform List<scalar> 
47104
(
4.37803e-13
4.37779e-13
2.88613e-13
-9.20384e-15
-4.45675e-13
2.97116e-13
7.27758e-12
3.07238e-13
-2.88822e-13
-5.82404e-12
6.04907e-13
4.36832e-13
6.3888e-13
4.84268e-12
-2.60679e-13
-5.6433e-13
-3.82574e-14
-1.38689e-13
1.20759e-13
3.09993e-13
5.05627e-12
6.87992e-13
4.35941e-14
3.54154e-13
5.22688e-13
-4.7704e-14
-7.53985e-12
-1.04742e-12
-4.27947e-14
5.87152e-12
-1.37403e-13
3.07703e-13
-9.81717e-14
-4.96927e-12
1.62533e-13
6.19578e-13
4.8656e-14
1.59873e-13
-3.21022e-13
-4.1823e-13
-5.23565e-12
-7.02995e-13
1.07212e-12
-1.17306e-13
1.16798e-12
8.20139e-14
4.3666e-12
3.83547e-13
5.62319e-12
-3.65553e-13
-3.59638e-13
5.34726e-12
-3.46931e-13
2.46253e-15
-1.61893e-13
-2.94533e-13
-3.89625e-14
1.27164e-13
2.87922e-12
1.29324e-13
9.79076e-14
2.79141e-13
-7.96777e-13
-3.00382e-13
-8.80453e-12
2.44905e-14
-4.53008e-12
-9.6289e-14
-5.8775e-12
5.11332e-13
1.98883e-13
-5.08214e-12
-6.6985e-14
7.71724e-13
2.47338e-13
2.51101e-13
-1.00785e-13
6.07271e-12
-2.90841e-12
6.21337e-12
-2.16963e-14
-2.51439e-13
3.83883e-13
1.60857e-13
7.76552e-12
-5.54863e-12
-1.58003e-14
-7.43454e-13
-5.13626e-12
-5.68652e-13
9.51284e-15
1.39735e-13
4.37336e-13
-7.34223e-13
1.48533e-13
-5.79291e-12
1.57886e-13
-6.41272e-12
-5.37556e-12
-6.10335e-12
-8.91003e-14
0
-9.40785e-12
-2.08918e-12
1.49178e-13
-1.49177e-13
8.35665e-12
5.07713e-12
-6.27245e-12
6.01163e-14
-4.79535e-12
-9.95111e-14
5.42479e-12
4.71091e-12
1.60795e-12
-1.60795e-12
-2.43021e-12
-1.60871e-12
1.53243e-14
-4.41381e-13
-4.76425e-14
-1.14037e-13
8.73432e-12
6.38073e-12
-4.89917e-13
-2.49477e-13
-1.04684e-11
-7.15072e-12
6.06381e-13
-5.74496e-12
5.07026e-12
8.53386e-14
-2.20094e-13
-1.2306e-11
1.37139e-12
1.57706e-11
-9.10005e-15
-3.17636e-13
1.76698e-13
-6.32035e-12
-5.03372e-12
-1.05552e-13
1.44496e-11
1.29917e-11
-1.19035e-12
-1.55837e-11
5.31652e-13
2.29084e-13
-1.19547e-12
7.02023e-13
-5.62149e-12
7.31799e-12
-1.36153e-11
-1.0435e-13
8.78655e-13
4.53536e-14
-5.98503e-13
-4.59322e-13
-5.96887e-12
1.18163e-11
5.29615e-12
-2.4372e-14
-1.18949e-11
-1.01055e-11
1.09889e-11
2.38499e-13
1.67153e-13
3.07323e-13
6.84137e-12
5.05945e-12
5.42026e-12
-1.94121e-12
1.12866e-11
1.0247e-11
-1.14356e-11
-1.06228e-12
1.8806e-13
-6.00728e-14
5.89273e-12
-1.0955e-11
-1.89758e-13
-1.99749e-13
1.53367e-12
-4.07464e-12
-1.12168e-13
-6.65546e-12
-7.58898e-12
-3.36682e-13
-8.78192e-14
-9.49444e-14
0
-5.37569e-12
-5.22518e-12
-2.9838e-13
4.47445e-13
-7.60682e-12
-4.92372e-12
1.19447e-12
2.98674e-13
5.07317e-12
2.09334e-13
2.3885e-12
-7.00958e-12
-7.3012e-12
-3.72588e-12
-4.47107e-13
1.04303e-12
-1.49134e-13
2.83609e-12
6.01426e-14
-4.7892e-12
-1.65884e-11
-1.38356e-11
-9.80131e-12
2.42726e-12
6.45519e-13
-1.93597e-12
-3.44167e-13
-1.23561e-13
1.42662e-13
-2.31737e-13
1.05062e-11
-8.64685e-12
6.86805e-12
9.41312e-12
1.67807e-11
1.60063e-11
5.93289e-13
-1.29054e-13
-2.48252e-13
5.0596e-12
-9.3534e-13
7.98888e-12
-4.81367e-08
-6.88508e-08
-7.0728e-08
-6.05501e-08
-3.83235e-10
-5.28301e-13
-5.36828e-14
-2.64721e-13
5.93017e-13
-1.31514e-11
-4.80183e-09
3.51997e-09
3.74796e-09
2.62307e-09
-4.66348e-11
4.1366e-15
3.62899e-15
-3.12737e-14
2.38697e-13
1.35079e-11
1.09212e-09
-7.91551e-10
-8.64699e-10
-5.93797e-10
1.72423e-11
2.56904e-13
6.79259e-14
4.6866e-13
-2.30439e-12
2.92145e-12
1.43215e-08
-9.16892e-09
-9.62941e-09
-7.12936e-09
1.54221e-10
-1.90826e-11
-2.97838e-13
-5.59432e-14
8.57393e-13
-2.90967e-12
1.32431e-09
1.28365e-09
1.30638e-09
1.36683e-09
-6.80345e-11
3.22857e-11
1.67203e-13
4.36654e-14
-2.98428e-13
1.03239e-13
-1.14843e-11
-2.45231e-13
-3.40749e-13
1.17941e-15
1.35985e-11
-1.28259e-11
1.88851e-13
1.49184e-13
-6.71557e-12
8.19957e-12
-3.87296e-12
4.02313e-12
-1.93715e-12
-8.93881e-13
5.66628e-12
1.94036e-12
-2.98375e-13
-5.80512e-12
-2.97288e-13
-1.18133e-12
-3.96115e-12
-1.61153e-12
1.36248e-11
-4.4014e-13
-4.28183e-12
-3.86395e-12
-6.54823e-12
-6.04307e-12
-1.56083e-13
-8.09513e-12
2.92701e-09
2.85653e-09
2.85705e-09
2.88381e-09
1.78117e-09
-1.0469e-11
-1.61218e-13
1.14474e-13
-2.9601e-13
-7.0649e-10
8.85442e-06
9.13629e-06
9.21144e-06
9.07552e-06
9.37268e-06
1.89023e-09
9.0248e-13
4.7008e-13
-1.4918e-11
-3.81575e-08
-0.464368
-0.704295
-0.707753
-0.699249
0.0678434
2.94671e-09
-1.31071e-14
-5.72948e-12
-4.28609e-12
-6.81169e-11
-0.00258703
-0.00882209
-0.00919733
-0.00838164
-0.0015381
4.85654e-11
5.76348e-12
-1.97302e-13
2.63519e-12
5.14516e-10
0.00016234
0.000523528
0.00054958
0.000493811
-0.00191008
-5.31752e-12
1.29325e-13
1.11802e-11
7.8649e-12
2.43246e-09
0.00697155
0.0249864
0.0256586
0.0240422
-0.00221743
-3.68351e-10
3.12312e-14
-1.16539e-13
1.21834e-11
9.13994e-08
0.350462
0.461484
0.46319
0.458375
-0.0677512
-3.31528e-09
-1.50541e-13
-5.18346e-12
2.64375e-13
3.82395e-08
3.34007e-07
2.74478e-07
2.71174e-07
2.86476e-07
5.55976e-08
3.08006e-12
3.42566e-14
-1.48842e-13
-5.94368e-13
1.01853e-11
2.64012e-12
4.98028e-12
1.75786e-12
1.9071e-12
-1.47648e-13
8.76872e-12
2.977e-13
-6.8386e-12
4.45245e-13
-2.49811e-12
-1.74186e-12
-1.87947e-12
-8.6749e-13
1.74227e-12
1.91044e-12
-4.45151e-13
-2.82407e-12
-7.80334e-12
6.51133e-13
-4.70776e-11
-5.39641e-09
-3.50525e-08
-3.28028e-08
-3.97627e-08
4.40004e-10
-6.74007e-14
-8.17019e-12
6.50552e-12
2.95076e-13
-6.91589e-07
-0.355514
-0.432975
-0.433791
-0.431858
0.0149869
3.67777e-09
2.68674e-12
7.44093e-12
7.09863e-11
0.010086
1.51271e-06
8.61398e-12
-7.78629e-14
9.96297e-11
0.000258638
1.58132e-07
8.52078e-12
1.70435e-13
-2.00759e-11
5.73672e-05
-2.65141e-08
-5.85322e-13
1.07779e-14
-2.57166e-10
-0.000476504
-6.83334e-07
-8.67124e-12
2.23654e-13
-2.27279e-11
0.000430645
4.2539e-07
2.79248e-13
-2.54778e-13
-1.18665e-11
2.36463e-07
9.58274e-05
0.000153258
0.000153522
0.000152674
-1.15016e-05
5.17041e-11
4.11977e-14
-1.4865e-13
2.07701e-12
5.87608e-13
-1.45128e-13
-4.62581e-12
1.30115e-12
1.33565e-11
-4.55558e-12
9.20083e-12
-1.48668e-13
-5.35342e-12
-2.37696e-12
0
1.88547e-12
-2.45358e-12
-6.49536e-12
-2.03141e-12
6.47272e-12
4.90223e-12
0
-1.52167e-13
-2.30641e-13
-4.37657e-11
1.24457e-09
-3.79491e-08
-3.50595e-08
-4.39354e-08
5.11797e-10
-3.2104e-12
5.97832e-12
5.32408e-12
1.78132e-12
-7.24662e-07
-0.365616
-0.451929
-0.45307
-0.450318
0.0156279
3.8705e-09
-5.08583e-12
3.28604e-14
-1.81449e-11
0.0125187
1.74415e-06
-6.10292e-12
1.77666e-13
1.1927e-10
0.000331086
2.37119e-07
6.36206e-12
-1.4097e-13
-1.02857e-11
4.09345e-05
-3.87217e-08
5.56935e-12
5.46425e-12
-3.42423e-10
-0.00126369
-9.68148e-07
-3.95606e-12
5.071e-12
6.24369e-12
-0.000215452
4.7879e-07
-5.26265e-12
-5.68012e-12
4.86286e-13
2.42383e-07
9.89391e-05
0.000181796
0.000182394
0.000173783
-5.72829e-06
6.693e-11
3.1435e-12
-5.05521e-12
0
0
7.97577e-12
4.90657e-12
2.30922e-12
5.80259e-13
2.20587e-12
1.2181e-11
-2.9742e-13
-1.04154e-12
-2.52771e-12
7.35867e-13
1.45126e-12
-2.45471e-12
-5.77636e-13
-1.45192e-13
-2.20849e-12
1.93289e-12
5.8019e-12
-9.51493e-12
-2.64165e-12
-6.7203e-11
3.82804e-09
-3.46083e-08
-3.15486e-08
-4.11058e-08
5.19979e-10
6.42388e-14
-5.54492e-14
-1.95775e-13
1.22004e-11
-7.25139e-07
-0.366087
-0.452794
-0.453983
-0.451138
0.015648
3.86957e-09
-6.16126e-12
8.33345e-12
-7.69416e-11
0.0125229
1.76858e-06
-5.83681e-12
-7.60081e-12
1.41593e-10
0.000339893
2.46449e-07
5.34376e-14
3.54272e-13
-1.77071e-11
3.21501e-05
-4.03654e-08
5.64503e-12
7.90223e-12
-3.62844e-10
-0.000661525
-9.86788e-07
8.02577e-12
-3.63952e-13
8.62468e-12
0.000488577
4.8053e-07
-3.09739e-13
-1.55161e-13
-1.32963e-11
2.42847e-07
9.90551e-05
0.000182497
0.000183147
0.000178922
-1.23002e-05
6.38509e-11
-7.55513e-12
1.48765e-13
-6.83679e-12
6.03254e-12
-4.64335e-12
8.80697e-12
8.37447e-12
-7.25678e-13
-6.47562e-12
2.67622e-12
-1.48797e-13
0
1.17525e-11
-1.76712e-12
-1.30699e-12
-5.20182e-12
-1.47398e-11
1.08963e-11
1.47321e-13
-1.93396e-12
-5.9536e-13
7.45202e-14
1.49974e-11
-5.16039e-11
4.14111e-09
-3.44042e-08
-3.13382e-08
-4.0958e-08
5.19002e-10
2.89889e-12
-5.43313e-13
-3.78041e-13
0
-7.13389e-07
-0.366089
-0.452868
-0.454062
-0.451206
0.0156482
3.80445e-09
5.32822e-12
-3.79162e-13
5.97207e-10
-0.00129994
1.77055e-06
1.228e-13
5.15715e-13
1.59092e-10
0.000543438
2.46672e-07
-5.25825e-12
-6.08067e-12
-9.27757e-12
3.49606e-05
-4.04094e-08
-5.06532e-14
2.93988e-13
-3.67814e-10
-0.000642933
-9.87972e-07
-1.12312e-13
6.68683e-12
1.07051e-11
0.000489566
4.80806e-07
2.29246e-13
-5.86351e-14
-1.15228e-11
2.42174e-07
9.91149e-05
0.000182563
0.000183205
0.000178248
-1.21912e-05
5.03549e-11
1.34943e-13
1.48836e-13
4.16375e-12
-7.65545e-12
4.50113e-12
9.5355e-12
6.79116e-12
5.95512e-12
4.41812e-13
2.8265e-12
1.4887e-13
-4.46712e-13
-6.25043e-12
-2.94714e-12
1.45397e-13
5.64402e-12
-4.92076e-12
-5.09069e-12
-4.12735e-12
1.93467e-12
-2.97795e-13
-5.8935e-13
-3.90341e-12
-5.59311e-11
2.42883e-09
-3.67645e-08
-3.38546e-08
-4.29203e-08
5.1999e-10
1.14448e-13
-2.56581e-13
1.61197e-14
-3.56229e-13
-7.0928e-07
-0.365963
-0.45253
-0.453696
-0.450888
0.0156465
3.80687e-09
7.59636e-14
8.23889e-14
5.83113e-10
-0.00222281
1.75369e-06
-9.61126e-14
5.40594e-12
1.63001e-10
0.000521751
2.37644e-07
5.52042e-12
-2.79864e-13
-2.95775e-11
4.00126e-05
-3.85921e-08
-6.35059e-13
-5.65704e-12
-3.4901e-10
-0.000631825
-9.68064e-07
-5.65488e-12
2.95624e-13
-1.0199e-11
0.000488433
4.80134e-07
6.29003e-13
5.8825e-14
1.9609e-11
2.41357e-07
9.93234e-05
0.000182125
0.000182726
0.000174332
-5.73031e-06
6.41008e-11
-4.85014e-13
1.48892e-13
-2.23142e-12
-1.62043e-12
4.07036e-12
-4.7751e-12
2.02601e-12
7.27092e-13
1.76836e-12
0
-7.44626e-13
-7.74426e-12
1.48853e-12
8.84923e-13
9.90982e-12
-1.45159e-12
0
5.83021e-13
-2.36012e-12
-1.08668e-11
1.48938e-13
-7.21899e-12
6.848e-13
-5.53537e-11
1.58216e-08
1.19196e-08
1.45347e-08
4.48247e-09
3.50323e-10
-2.41302e-11
5.34236e-12
1.50489e-12
2.97621e-13
-7.19722e-07
-0.360144
-0.439609
-0.440517
-0.438354
0.015202
3.40773e-09
6.94762e-12
6.99651e-12
-1.96922e-10
0.0106437
1.26646e-06
-5.35621e-12
1.87777e-13
-4.27295e-11
0.000269715
1.03668e-07
-7.33027e-12
3.96992e-13
2.27761e-12
3.55285e-05
-1.67077e-08
2.5074e-13
1.12934e-11
3.02734e-11
-0.000472909
-4.23789e-07
3.12679e-12
-3.65953e-13
5.19611e-12
0.00045862
3.78383e-07
2.60952e-13
-5.68612e-12
-5.90198e-12
2.38539e-07
7.82354e-05
9.38563e-05
9.37174e-05
9.62607e-05
-1.11149e-05
5.39447e-11
-2.85961e-12
0
3.2737e-12
2.94872e-12
7.72187e-12
-1.74165e-12
0
-1.12206e-11
-1.07655e-11
0
-4.46885e-13
0
5.95421e-13
-1.91768e-12
-7.14227e-12
2.61302e-12
-6.53236e-12
2.04031e-12
-7.37466e-13
-4.46621e-13
-2.68119e-12
3.13892e-14
-3.60994e-13
6.02258e-12
3.15154e-12
1.5666e-11
-9.26967e-12
7.04909e-12
-4.56215e-11
-8.37737e-12
2.10758e-14
1.20968e-14
2.97635e-13
-1.12897e-08
-1.75489e-05
-1.84795e-05
-1.8488e-05
-1.84805e-05
-1.60533e-05
3.53126e-11
2.634e-12
1.09307e-13
-2.45055e-14
1.41538e-07
-5.75435e-10
6.49625e-12
1.71431e-13
-1.12253e-11
2.69519e-09
-3.41774e-11
-2.2041e-14
-5.44292e-12
1.06824e-11
7.51187e-10
-7.36682e-12
-1.32628e-11
4.32849e-14
-6.86171e-14
-7.43132e-09
1.60548e-10
9.53441e-14
5.01589e-12
-8.84271e-13
-8.01556e-07
-1.01073e-09
6.75469e-12
-3.02126e-13
4.65002e-13
1.91502e-09
-5.95902e-08
-6.24514e-08
-6.26537e-08
-6.18177e-08
1.39059e-08
7.09908e-12
-1.49917e-13
0
-1.93456e-12
-5.89776e-13
6.99377e-12
-8.41834e-12
2.17737e-12
4.37231e-12
2.21232e-12
-1.7864e-12
1.48971e-13
-1.63807e-12
-5.35795e-12
5.01209e-12
2.90917e-13
2.3159e-12
-2.89473e-12
-6.10744e-12
2.94762e-13
-4.76352e-12
1.4895e-13
-8.02714e-12
-1.76414e-11
-1.46817e-12
1.68466e-13
9.39509e-12
-1.8425e-13
4.92466e-12
3.33395e-13
4.20977e-12
-5.66463e-12
-6.31546e-12
1.13118e-11
-2.06173e-11
2.35852e-11
-1.25131e-11
-1.58728e-12
-2.92524e-13
1.43783e-11
0
-3.34115e-13
-2.69257e-13
1.54074e-11
2.08372e-11
8.16792e-13
5.50165e-12
-1.42497e-13
-1.56906e-11
-1.53732e-12
-1.06222e-11
7.77308e-14
2.6919e-13
9.31807e-14
2.40591e-13
1.11428e-11
-5.4553e-12
-5.36387e-12
1.23864e-11
3.34048e-12
-6.75478e-12
-8.42208e-12
-1.69907e-14
-1.20233e-11
-2.24154e-11
2.14429e-11
5.65336e-12
4.96991e-12
2.88377e-13
-1.01312e-11
-6.23805e-12
-8.77629e-12
4.24932e-12
-1.09349e-12
-9.24188e-12
-1.50399e-11
8.38902e-12
-5.95753e-13
-8.77894e-12
-1.20825e-11
-1.59945e-12
3.03916e-12
2.4607e-12
-2.90952e-13
-1.26771e-11
-5.20956e-12
1.48958e-13
0
8.92851e-12
-9.28212e-12
7.26523e-13
8.8175e-12
-6.50438e-12
6.97296e-12
-4.41957e-13
1.93494e-12
-5.95751e-12
-1.25678e-13
4.23444e-12
-8.75689e-12
-2.98077e-13
8.10318e-12
2.09411e-13
7.20513e-12
-1.18959e-11
1.88979e-12
-9.58526e-12
2.23237e-13
1.19158e-12
3.36234e-13
-1.39957e-12
2.02498e-11
1.82152e-12
-2.88313e-13
7.92035e-12
-2.11366e-12
5.87679e-12
8.51963e-12
2.07921e-13
-1.16219e-12
-1.04344e-11
9.28418e-12
-8.1658e-14
-5.03852e-13
5.89732e-13
2.43978e-11
-4.14742e-13
-6.34399e-13
8.09648e-15
2.13902e-11
-1.35012e-11
-7.47818e-12
-1.08295e-12
-8.39858e-13
1.16822e-11
-5.54111e-13
7.9916e-13
-1.32795e-11
-2.94263e-13
1.43748e-11
-8.04128e-12
1.00498e-12
1.09054e-12
3.52626e-13
3.14443e-11
2.11324e-12
-1.17892e-11
-1.72414e-11
-3.50277e-12
2.40964e-12
5.80115e-12
-1.07832e-13
4.91445e-12
2.97563e-13
-2.9458e-12
1.59788e-12
2.45697e-12
3.61367e-12
-8.71871e-13
1.10501e-11
-8.92898e-13
6.55339e-12
0
5.95208e-13
2.20985e-12
6.6829e-12
2.89031e-13
-1.44507e-13
-1.1329e-11
7.07051e-12
1.04181e-12
-4.46793e-13
5.58469e-13
7.79856e-13
-2.68727e-12
-8.52426e-14
-1.43013e-11
-1.33822e-14
-1.86699e-12
7.39177e-12
-1.93663e-12
-1.83384e-13
-5.1086e-12
0
-6.94341e-12
3.63133e-13
2.08763e-11
2.27935e-11
-1.98197e-12
7.20131e-13
0
-7.61108e-12
-1.11763e-13
7.72487e-13
4.06827e-12
1.40836e-13
-6.25806e-12
4.98108e-12
-1.25683e-11
3.12657e-11
-4.67963e-13
7.21126e-12
1.04428e-13
1.04516e-11
5.07893e-13
1.49839e-13
6.26131e-12
-7.25595e-12
2.19873e-12
1.43514e-12
1.24223e-13
6.24739e-13
3.02145e-14
-2.94407e-13
-2.08775e-11
7.29437e-13
-7.28854e-12
7.40942e-12
3.69579e-15
-3.87455e-12
1.0902e-11
-1.75847e-12
7.34117e-13
2.91805e-13
6.49461e-13
-4.37241e-13
-1.01827e-12
1.4891e-13
-1.48773e-13
1.11924e-11
8.27782e-12
-1.02588e-11
2.31195e-12
-2.32387e-12
-2.94576e-13
-1.488e-13
6.55298e-12
4.46681e-13
-2.2321e-12
0
-2.90671e-13
-2.89151e-13
-2.31305e-12
1.74341e-12
-1.0312e-12
9.37613e-12
5.0637e-12
4.66906e-13
6.09361e-13
4.99344e-12
1.30727e-11
-2.6393e-13
4.11462e-12
9.13193e-13
1.37918e-12
5.50952e-12
-3.07483e-13
7.30931e-12
2.97772e-13
-2.44789e-11
-1.75643e-11
-2.69543e-11
2.82778e-13
-3.84303e-12
-2.37681e-11
1.53997e-11
-3.16442e-14
5.51229e-12
5.18331e-13
-2.6149e-11
-3.14015e-11
5.59933e-12
-7.0851e-12
9.54373e-12
-2.94938e-12
1.70181e-11
-9.30981e-14
-5.14584e-12
2.14032e-12
2.5097e-11
9.25189e-13
-1.18743e-14
-1.1751e-13
-1.20928e-11
2.81878e-13
-9.82977e-13
4.7676e-14
4.25959e-14
-8.02877e-13
-6.25047e-13
-1.08293e-11
-2.40252e-13
-7.69707e-14
-8.55776e-13
-1.26369e-11
-4.72412e-12
-8.05797e-12
-5.87161e-13
-1.40048e-11
-8.12547e-12
1.08671e-11
-7.58812e-12
-1.4891e-13
-4.46322e-13
2.65109e-12
2.46949e-12
2.1682e-12
0
2.46957e-12
-4.41876e-13
-1.48802e-13
-7.14885e-12
0
0
-2.94827e-13
2.91028e-13
1.59315e-12
-1.73787e-12
1.4547e-13
2.21071e-12
1.78608e-12
1.48946e-13
-5.95644e-15
5.67092e-13
5.81158e-12
-1.2928e-11
-3.68755e-12
-8.92521e-13
-8.17122e-14
1.06847e-12
1.30993e-11
-8.19633e-14
-6.02833e-12
2.26113e-13
2.29573e-12
-9.91122e-12
1.97264e-13
-8.97172e-12
3.29124e-13
-9.0705e-12
-1.26722e-11
-6.61593e-12
-4.00338e-13
-7.09123e-14
-6.14296e-11
3.51613e-13
-1.25714e-13
6.18169e-12
-4.07025e-13
-2.59507e-11
4.46847e-14
2.85521e-12
2.79611e-13
-2.50823e-13
-1.32484e-13
-2.21086e-13
-5.09105e-15
-6.74969e-12
1.37205e-12
-6.83467e-13
-3.41524e-14
3.92177e-12
-4.86576e-14
2.56769e-13
4.68239e-12
-1.95911e-11
-1.93427e-13
6.55082e-12
-2.02886e-13
1.033e-11
-7.98583e-13
-1.06804e-11
6.37618e-12
4.95447e-12
1.02406e-12
2.01399e-11
-7.6775e-12
1.48925e-13
1.33909e-12
1.1788e-12
5.81811e-13
-5.35772e-12
-8.10903e-12
7.27251e-13
2.9471e-13
-1.78584e-12
-7.89442e-12
-6.4041e-12
2.97705e-13
-2.95036e-13
0
0
-1.30712e-12
2.91569e-13
1.47512e-13
-7.29546e-12
2.97947e-13
-2.81797e-12
3.28865e-14
9.47135e-14
4.1011e-13
-3.80113e-13
-1.16005e-12
-2.33813e-12
-5.49265e-13
2.07324e-12
-1.66955e-13
6.483e-12
8.92472e-13
-3.11178e-11
-8.95598e-12
2.27088e-11
1.93746e-12
3.4809e-12
-1.36141e-11
-1.87718e-11
-4.73315e-13
2.08257e-12
-6.03555e-14
7.29274e-13
4.51002e-12
-3.3882e-14
-3.57108e-13
-1.44088e-11
-4.10308e-13
5.30284e-13
4.6523e-13
6.38801e-13
1.37877e-11
-2.31455e-11
-8.98436e-14
2.11167e-13
4.61033e-13
4.55392e-13
-3.75836e-14
1.44456e-11
-4.37023e-13
6.65868e-13
4.98212e-13
-2.06632e-12
-1.51348e-11
5.58865e-14
-1.58311e-13
2.24552e-13
-1.20691e-12
4.22603e-12
-1.47397e-12
3.39612e-12
-1.76188e-12
5.33199e-12
4.8279e-13
1.33354e-15
-5.9584e-13
1.1163e-11
4.42458e-13
-6.70545e-12
-2.61386e-12
0
2.04062e-12
8.25883e-12
3.87059e-12
-2.97966e-13
5.51126e-12
1.48879e-13
2.95043e-13
-1.45701e-13
2.7563e-12
-2.17598e-12
-1.45683e-13
5.60537e-12
-1.93579e-12
4.32059e-12
7.89273e-14
2.31381e-13
-1.10409e-11
1.61696e-11
2.54293e-13
2.54912e-13
2.13357e-13
-7.39411e-12
-1.68722e-13
4.83227e-12
2.2796e-12
2.97807e-13
1.89367e-11
-1.16395e-11
-1.63846e-11
2.02847e-11
-3.12468e-12
1.96608e-11
1.08835e-11
4.01527e-13
-6.98065e-13
1.03314e-11
-1.56284e-12
-6.49064e-13
-3.44362e-13
-8.47523e-12
-9.74001e-12
-2.72998e-12
-1.03459e-11
8.76778e-12
8.24468e-14
-3.45517e-13
2.12208e-11
-7.42065e-13
-6.24812e-13
-1.40848e-13
-1.88638e-13
2.20864e-13
1.03251e-14
-8.73333e-12
4.653e-13
2.94556e-13
1.34523e-14
0
8.04838e-13
2.14113e-13
3.37359e-13
3.04416e-12
-5.10602e-12
5.97028e-12
-6.57104e-12
3.67118e-12
8.05353e-13
1.31667e-13
7.54545e-14
-1.48979e-13
-6.25241e-12
-6.48873e-12
2.62168e-12
-7.25208e-13
0
-1.74774e-12
1.47472e-13
1.48896e-12
-1.49003e-13
9.38388e-12
1.63739e-12
-2.65355e-12
-7.56202e-12
-5.20876e-12
-5.0641e-12
6.68937e-12
-1.23828e-11
5.95502e-13
0
-2.89223e-14
-7.29237e-13
-9.77528e-13
3.9433e-12
3.43884e-12
1.96976e-11
3.49265e-12
1.00915e-11
4.63853e-12
6.99852e-13
-9.46931e-12
8.9366e-13
-8.85359e-14
-9.56922e-13
2.87721e-12
-2.03549e-11
-3.11168e-12
-2.55986e-11
-3.01964e-13
6.50433e-14
-4.58781e-13
-2.03125e-13
-1.27422e-11
3.83061e-12
-7.71395e-13
-6.43142e-12
2.73739e-13
-3.68269e-13
-1.7167e-11
5.11152e-12
4.09751e-13
-3.33585e-13
-2.13491e-12
1.32914e-11
-4.67492e-13
5.16934e-14
3.27934e-13
-7.54241e-13
1.44019e-13
-1.36767e-11
7.16935e-14
3.11901e-13
9.88774e-14
-8.77822e-12
-7.00524e-12
6.27002e-12
-1.22816e-11
5.06383e-12
6.82609e-12
3.58477e-12
-5.05714e-12
-2.62315e-12
1.27558e-11
1.00842e-11
9.18608e-12
1.48969e-13
2.23254e-12
-2.21032e-12
-1.23558e-11
-1.44661e-13
4.4845e-12
-2.3258e-12
-3.97876e-12
0
7.30094e-12
1.48964e-13
1.48847e-13
-8.25234e-12
9.44605e-12
1.44573e-13
2.74697e-12
-1.88938e-12
6.48466e-12
1.63758e-12
4.46931e-13
1.32552e-13
-1.9236e-14
-6.73734e-12
1.70244e-11
2.91445e-13
6.1977e-12
6.52646e-13
-1.00202e-11
1.13684e-11
5.97265e-12
-1.07343e-13
2.97761e-13
-1.05401e-11
-1.43309e-11
1.86745e-12
-2.3412e-11
1.0052e-11
4.47525e-11
-1.02705e-11
-3.51322e-13
3.9166e-14
-3.60179e-13
-1.73963e-12
-2.62336e-13
-6.03316e-12
-1.12378e-13
-4.58759e-13
2.06427e-11
-1.05628e-11
9.81114e-14
-6.33822e-12
8.54293e-13
3.23263e-11
1.09163e-11
-8.19875e-12
-6.41596e-14
-2.12965e-13
1.01144e-12
-1.92599e-13
-5.02969e-12
6.73601e-12
3.38543e-13
1.78052e-12
-5.26016e-13
8.44478e-12
-1.14005e-13
8.1649e-13
-1.20782e-11
-1.17747e-11
3.80927e-12
3.66976e-13
-7.58616e-12
8.98649e-13
-7.57841e-13
5.05709e-12
0
-8.92979e-13
5.30364e-12
2.90563e-12
1.18531e-11
-1.30095e-12
7.84517e-12
1.00183e-11
2.23295e-12
-1.49011e-13
-8.9413e-13
-2.68019e-12
2.35848e-12
1.45375e-13
1.44649e-13
-9.98129e-12
2.90812e-13
3.39091e-12
5.95662e-13
8.04737e-12
5.18706e-12
-2.78881e-13
-4.60837e-12
-3.36864e-13
-6.33555e-12
-3.05379e-12
2.41001e-12
-2.21007e-12
1.30784e-11
1.40588e-13
1.26381e-11
0
-1.81883e-12
-1.99312e-12
5.31644e-12
-2.49987e-11
4.25824e-12
6.91201e-12
-2.65804e-11
-7.47199e-12
2.67053e-13
1.12664e-13
0
1.34467e-11
1.75303e-13
-5.80544e-12
7.28252e-13
5.89879e-13
-2.29869e-13
4.73533e-12
-2.82535e-13
-7.85911e-13
5.77452e-12
5.37064e-13
-3.49791e-13
1.47692e-13
5.53689e-14
2.63912e-11
-8.54811e-13
1.68093e-12
3.15041e-13
-7.10325e-12
2.16731e-12
1.17092e-12
1.03613e-11
-6.9654e-14
2.10541e-11
-1.88457e-12
4.65198e-12
8.13208e-12
-1.37997e-11
-8.46209e-12
2.59211e-13
-1.8942e-13
-7.04323e-12
0
-5.95493e-12
-6.18986e-12
-2.18029e-12
8.09926e-12
4.04961e-12
1.45349e-12
-1.47378e-13
-9.38118e-12
-1.01365e-11
0
-8.64395e-12
2.21428e-12
7.2858e-13
-2.03092e-12
2.46627e-12
-1.45758e-13
1.9195e-12
0
6.11439e-12
5.73447e-12
-6.47112e-12
-1.65293e-13
1.58669e-13
-6.11302e-13
5.41928e-13
-8.86462e-13
-8.84584e-12
-4.28919e-13
6.41406e-12
-3.74837e-14
1.552e-11
-2.16379e-12
-3.13217e-12
-7.1117e-14
1.45566e-11
1.11364e-12
1.68285e-11
1.81191e-12
-1.66617e-13
2.16874e-12
-1.53156e-11
-1.73889e-11
-1.895e-13
6.94867e-12
-1.40325e-13
8.3811e-14
-2.11706e-13
1.4251e-11
-4.97549e-13
-1.53076e-11
-1.26283e-14
2.3753e-11
-1.55427e-11
-1.33952e-11
1.8163e-13
-5.35097e-14
5.52848e-13
3.41923e-15
2.77466e-12
8.41542e-12
-1.74315e-11
6.24768e-13
6.35898e-13
1.78097e-11
9.98098e-14
9.99417e-13
-1.07408e-11
-4.13931e-12
-1.6024e-11
6.96395e-12
-1.23877e-12
-1.22552e-11
-2.52335e-13
-1.64379e-12
-5.96477e-13
3.12905e-12
-3.09954e-12
1.1656e-12
1.45048e-13
-2.90095e-12
2.91388e-13
2.95183e-12
3.72589e-12
-1.1188e-11
2.98535e-13
1.94048e-12
0
2.05506e-12
-2.19547e-12
-2.92744e-13
-4.40469e-13
-2.37144e-12
-2.5375e-12
7.46288e-13
1.55007e-13
1.51896e-11
-1.00812e-12
1.28977e-11
4.57927e-12
-1.12482e-12
3.22412e-13
-5.4586e-12
-4.52229e-12
7.73615e-12
-5.08436e-12
-1.57784e-11
5.36861e-13
-1.6889e-11
-6.09808e-12
4.37756e-12
2.37729e-13
1.14766e-12
-6.03185e-12
6.74346e-12
-1.08876e-12
1.59082e-11
2.37062e-11
9.30675e-12
-3.78407e-14
4.8565e-12
-3.17323e-11
-6.26861e-13
-1.02627e-11
7.78066e-14
6.85589e-13
1.67746e-11
-3.29529e-11
1.01829e-11
2.39217e-13
5.47154e-13
2.77894e-13
4.51854e-11
3.43441e-13
-2.12779e-13
-5.52964e-12
8.6446e-14
5.91887e-13
1.46478e-11
6.06521e-14
4.99415e-12
1.4757e-11
-1.61277e-11
-1.11634e-11
0
-4.38954e-12
-1.45574e-13
8.19469e-13
-3.41388e-12
-6.54302e-14
1.0596e-11
-2.38763e-12
1.03725e-12
1.21825e-11
-2.48792e-12
-1.46347e-13
-2.49508e-12
2.96337e-13
2.68666e-12
0
0
-2.0904e-12
-1.01202e-11
-1.4822e-13
3.25757e-12
0
7.41179e-12
4.465e-13
2.53819e-12
-1.49211e-13
-1.76173e-13
5.68657e-13
-7.21042e-12
-2.52264e-13
-3.42099e-12
-1.08985e-12
1.55995e-11
1.05365e-11
4.75583e-12
5.28821e-12
-5.24106e-12
5.97461e-13
-1.39862e-13
5.5937e-12
-5.8383e-12
1.31838e-11
8.22808e-12
-1.335e-11
-4.53552e-12
1.52138e-13
-1.38464e-13
2.20407e-13
-2.0721e-12
1.14632e-11
-5.25675e-12
-4.19216e-12
1.03385e-11
-2.89637e-11
-1.15327e-11
6.10925e-12
-4.18927e-13
-1.27069e-11
1.04722e-11
9.42498e-12
-3.12701e-14
9.08841e-12
1.67386e-12
-2.50707e-11
4.05187e-12
-6.6725e-12
-6.78769e-12
-4.13248e-13
2.39627e-12
-1.34428e-11
-6.67549e-12
7.64843e-13
5.75312e-14
0
2.79885e-12
7.23736e-12
-8.13271e-12
2.01739e-13
-5.34509e-12
-1.10693e-13
7.693e-13
6.86262e-12
0
-7.58834e-12
0
1.48054e-13
-1.48052e-12
0
2.97592e-13
1.04504e-12
6.56622e-12
5.06213e-12
1.14641e-11
1.60496e-11
2.52183e-12
1.92767e-12
3.26245e-12
1.92851e-12
-7.87591e-12
-1.93541e-12
-5.21035e-12
5.56755e-12
1.83391e-11
7.21456e-12
1.70892e-13
-3.84569e-12
-4.01088e-13
-5.61319e-12
-1.27131e-11
1.53071e-13
5.4133e-12
-9.66528e-14
7.31398e-14
-1.64268e-11
-6.86978e-12
7.3865e-12
-1.94398e-11
3.9538e-12
6.90437e-12
2.97139e-13
5.18128e-12
1.83923e-13
-2.96371e-13
1.55861e-11
1.66926e-11
-4.4436e-12
-2.06246e-11
-1.82625e-11
2.91818e-11
-5.74103e-13
1.18317e-12
-9.58071e-14
1.06823e-11
-9.79177e-13
-1.33905e-11
5.74736e-12
1.25675e-11
1.10073e-11
2.11309e-11
1.12156e-11
5.7956e-13
6.39439e-14
-1.13165e-11
2.92047e-13
-1.22413e-11
-6.18104e-12
-2.79917e-13
-1.90126e-11
-2.72945e-11
-1.11265e-11
-6.69251e-12
1.53729e-12
5.17333e-13
-1.55005e-11
2.465e-11
0
-1.54692e-11
1.87891e-11
7.12054e-13
-1.28822e-11
1.37429e-12
-3.91482e-13
-1.49895e-11
2.17415e-11
-1.4222e-11
2.15531e-11
2.34818e-11
3.05732e-11
-9.6167e-13
1.38224e-11
-1.96848e-13
-1.64264e-12
3.66322e-12
-1.12054e-11
-8.88991e-12
-2.52473e-12
-2.56252e-11
1.34967e-11
2.43735e-13
-3.00538e-13
-1.68787e-12
-1.48846e-13
1.48832e-13
-1.33709e-12
2.37323e-12
1.14166e-11
-7.41369e-13
1.08277e-11
1.78294e-12
-1.63739e-12
0
4.45413e-13
6.82531e-12
-4.8896e-12
0
7.10678e-12
1.36148e-11
-7.54886e-12
-1.17109e-11
-1.48384e-11
-1.2619e-11
-2.72622e-13
1.19556e-13
9.78578e-12
-1.82651e-12
5.21324e-12
1.03314e-12
1.90312e-12
-9.18397e-12
-5.4446e-12
-6.27192e-12
-6.56529e-13
-6.75855e-12
6.06459e-12
4.06112e-13
-1.71793e-11
-5.06483e-12
7.79183e-12
-5.16732e-15
9.14492e-12
4.07513e-13
1.88507e-13
-1.61646e-13
1.22733e-11
9.17326e-15
1.551e-11
-2.14232e-13
1.56557e-11
-4.18303e-13
6.20259e-13
1.88821e-13
-6.69299e-12
2.61607e-13
-1.3238e-11
9.45558e-12
3.36712e-12
-1.98125e-12
-2.96407e-11
-1.29457e-12
6.40072e-12
5.83681e-12
7.36135e-14
7.10347e-12
8.4372e-14
-8.53356e-12
2.69383e-12
1.98138e-12
1.4316e-11
8.82313e-13
-2.7835e-13
1.52897e-14
1.33716e-11
-2.32368e-12
-3.92242e-13
-4.21191e-12
-1.03879e-11
9.76508e-13
-8.66623e-13
2.91515e-13
-8.33356e-12
2.78543e-13
-5.42849e-16
-9.9245e-12
3.49208e-13
1.11278e-11
-1.17587e-11
-1.17674e-12
1.39549e-12
1.61974e-13
-3.57649e-13
2.72837e-13
-1.35636e-11
2.07342e-12
-4.18362e-14
2.14821e-12
1.18269e-11
-2.43466e-12
7.74398e-13
-3.4708e-12
-1.16615e-11
1.46603e-12
-6.53159e-12
0
-3.85345e-12
-5.32809e-12
7.8465e-12
6.95482e-12
2.95997e-13
6.22235e-12
1.48361e-12
1.18771e-12
-1.18562e-12
-4.44367e-13
0
2.66282e-12
0
1.47916e-13
-1.47938e-13
-1.48023e-13
-5.92489e-13
-5.92785e-13
3.68058e-12
-4.6892e-13
1.3001e-13
2.76357e-12
-3.69306e-14
6.80111e-12
8.13333e-14
-5.22348e-12
-6.90278e-13
-5.91183e-13
-5.36599e-12
5.87412e-12
-8.17636e-14
-2.66993e-12
-7.4927e-12
1.80399e-13
9.80391e-14
-4.62483e-14
3.65644e-13
-4.41352e-14
-4.88487e-12
-7.77888e-12
4.24935e-15
-1.45673e-14
6.32327e-13
-7.19442e-12
-1.55384e-13
4.766e-12
-7.02152e-12
-1.29971e-13
5.51058e-12
-5.0689e-12
-6.9213e-12
2.92734e-12
7.52778e-12
3.79199e-13
-5.00228e-12
1.27646e-13
-2.10489e-13
1.20187e-13
7.71371e-14
7.68519e-12
-8.27041e-12
-8.53407e-14
-1.17123e-12
5.43187e-14
5.23241e-12
5.80405e-13
7.22572e-12
9.624e-14
5.57846e-12
-4.7161e-13
6.67507e-12
-6.63063e-15
-9.08191e-14
-1.65983e-13
-3.10355e-12
-3.73459e-13
-8.41795e-14
7.33331e-14
-3.69456e-13
-6.25871e-14
8.80635e-12
6.16746e-12
6.32499e-13
-6.06999e-13
3.47792e-12
2.45417e-13
2.63889e-13
5.04941e-13
-5.19167e-12
6.10544e-15
-4.1123e-13
-1.51353e-13
-8.44775e-14
1.05121e-13
8.74536e-12
-4.5025e-14
-2.12049e-13
-3.13801e-13
-1.48188e-13
-1.48109e-13
-7.40029e-13
-6.06497e-12
1.47915e-13
1.47906e-13
-7.83989e-12
-4.43998e-13
0
-2.96396e-13
0
1.48005e-13
-5.47402e-12
5.17673e-12
-2.95791e-13
-1.47896e-13
5.02894e-12
5.47422e-12
5.92028e-13
1.48051e-13
-5.38239e-12
-2.82459e-14
-5.1706e-12
8.12061e-15
-2.03783e-13
-2.21469e-13
1.10949e-13
3.94117e-13
-4.43716e-12
3.14069e-13
-5.25472e-12
-2.92219e-14
3.76758e-13
-1.21309e-11
-4.75794e-12
-3.4836e-12
-8.54768e-12
-7.01097e-12
-6.02676e-14
-1.05533e-14
5.98352e-12
-5.40073e-12
-5.75211e-12
-9.52027e-14
6.99172e-12
9.80272e-12
-4.48071e-13
4.44926e-12
5.40921e-12
1.27934e-12
5.23094e-12
-1.21711e-13
-1.09868e-14
6.88294e-12
5.14841e-12
3.75712e-12
3.29827e-12
7.88047e-12
6.37387e-14
-5.16008e-13
-6.66943e-13
-1.73449e-12
6.98407e-13
1.89166e-13
-7.16558e-12
-1.64884e-11
-6.57477e-12
1.13625e-12
-5.54162e-12
-1.00217e-12
-1.90803e-13
1.20781e-13
-4.52335e-14
-9.40372e-14
2.86887e-13
-6.4012e-13
-3.40152e-13
-1.16166e-12
2.66358e-14
5.74179e-12
5.3617e-14
3.14857e-13
-1.33698e-12
-9.52382e-15
7.74027e-12
8.08e-12
7.31662e-12
-1.88277e-13
5.64355e-12
-8.24988e-14
5.22382e-14
1.19616e-13
-7.51861e-13
9.28943e-14
-9.49222e-13
-6.23957e-12
-3.82135e-13
-6.92485e-12
8.58074e-12
-5.35291e-12
-1.48043e-13
6.65985e-12
5.91755e-12
-2.95797e-13
-7.54229e-12
-6.35917e-12
-4.437e-13
-6.50941e-12
8.43612e-12
0
-1.25775e-11
-7.24933e-12
7.3958e-13
0
5.91557e-13
-6.50717e-12
0
5.91681e-13
5.17821e-12
2.95944e-13
-1.10269e-11
-5.92961e-12
1.99395e-13
-5.08264e-12
-4.7711e-12
-4.86902e-12
-2.0228e-13
7.43252e-12
3.55079e-14
3.89282e-13
5.97763e-12
7.24489e-12
-5.91597e-13
-7.3448e-13
-7.46158e-12
-1.44083e-12
1.95659e-14
2.51467e-13
-5.09777e-12
5.40958e-13
-1.10365e-12
6.26657e-12
-3.54495e-13
4.86753e-12
-1.48247e-12
5.15129e-12
-2.56277e-13
-1.28388e-11
4.79206e-12
3.30999e-12
1.0869e-12
6.72642e-12
-5.15926e-14
-1.81994e-14
7.23076e-12
8.20356e-12
-2.12533e-14
-2.86658e-13
-6.43954e-15
4.60388e-12
7.19933e-12
1.91131e-13
6.34396e-12
2.66398e-13
6.3682e-12
-1.15659e-13
-4.25174e-13
5.99332e-12
1.66583e-12
-3.48528e-12
-3.41585e-13
-6.81383e-12
-1.73539e-13
-3.58482e-14
-7.18891e-12
-1.35434e-12
4.70455e-14
-8.02125e-13
-3.84418e-13
-5.08085e-12
2.39325e-13
-1.65627e-13
-5.90029e-12
1.15109e-13
3.42963e-13
8.42993e-14
2.28796e-13
2.2006e-13
-1.24782e-11
-2.48501e-15
-1.78021e-13
2.46167e-13
-2.05921e-13
-9.07357e-14
7.0331e-12
1.11905e-12
2.9318e-12
4.94726e-13
6.09182e-13
1.97012e-14
0
4.43819e-13
1.4791e-13
2.95779e-13
0
0
2.80996e-12
0
5.62194e-12
2.95943e-13
-5.25144e-12
-6.65729e-13
7.39659e-14
-3.69593e-13
4.43636e-12
-5.02791e-12
-5.17485e-13
-7.39032e-14
-2.2181e-13
7.37721e-14
-5.10204e-12
-1.40432e-12
7.39413e-14
-5.69358e-12
-7.39391e-13
-6.65498e-12
-5.84197e-12
-7.3885e-14
7.42186e-14
2.22501e-13
2.21045e-13
5.16808e-13
-2.95708e-13
1.48213e-13
-5.91564e-12
4.88055e-12
7.39661e-13
-1.47773e-13
-3.70194e-13