/*--------------------------------*- C++ -*----------------------------------*\
  =========                 |
  \\      /  F ield         | OpenFOAM: The Open Source CFD Toolbox
   \\    /   O peration     | Website:  https://openfoam.org
    \\  /    A nd           | Version:  10
     \\/     M anipulation  |
\*---------------------------------------------------------------------------*/
FoamFile
{
    format      ascii;
    class       volScalarField;
    location    "2.7";
    object      gradTz;
}
// * * * * * * * * * * * * * * * * * * * * * * * * * * * * * * * * * * * * * //

dimensions      [0 -1 0 1 0 0 0];

internalField   nonuniform List<scalar> 
3000
(
-2.04814e-09
-3.90799e-11
0
2.17604e-11
-2.08722e-11
-2.79776e-11
-5.24025e-11
8.88178e-13
-5.32907e-12
-1.56763e-10
-2.09166e-09
2.30926e-11
-6.92779e-11
-1.90958e-11
-6.88338e-11
-6.21725e-11
-5.77316e-11
-2.44249e-11
-6.21725e-11
-2.66454e-12
-2.10365e-09
-4.79616e-11
-1.82077e-11
-6.4837e-11
-8.12683e-11
-3.33067e-11
-7.50511e-11
-2.44249e-11
-1.53211e-10
-4.9738e-11
-2.10143e-09
3.10862e-11
-1.55431e-11
-1.64313e-11
-6.66134e-11
-1.5854e-10
-3.9968e-11
-1.81632e-10
-3.95239e-11
-6.30607e-11
-2.09655e-09
-4.61853e-11
-1.86517e-11
-1.59872e-11
-7.99361e-11
-7.50511e-11
-4.88498e-11
-1.60316e-10
-2.06501e-10
-6.26166e-11
-2.09122e-09
-3.15303e-11
-1.82077e-11
1.9984e-11
-7.99361e-11
-3.28626e-11
-7.54952e-11
6.21725e-12
-1.54099e-10
-5.06262e-11
-2.09655e-09
-3.59712e-11
-9.32587e-12
2.66454e-12
-2.84217e-11
-2.58904e-10
-1.5099e-10
-1.61204e-10
-1.50546e-10
-6.26166e-11
-2.10099e-09
-7.63833e-11
-1.64313e-11
-4.61853e-11
-3.24185e-11
-2.44249e-11
-5.50671e-11
-1.60316e-10
-7.81597e-11
-5.50671e-11
-2.08633e-09
-6.03961e-11
-2.30926e-11
-4.21885e-11
-6.92779e-11
-1.52767e-10
-4.44089e-12
-2.44249e-11
-2.18492e-10
-7.54952e-11
7.23865e-11
3.15303e-11
-1.55431e-11
-9.32587e-11
-3.64153e-11
-1.16795e-10
-1.86962e-10
6.21725e-12
-3.41949e-11
-5.19584e-11
-2.00151e-09
-5.55112e-11
3.28626e-11
2.4869e-11
-4.75175e-11
0
-7.86038e-11
-1.51879e-10
1.49658e-10
-1.17684e-10
-2.10498e-09
-4.84057e-11
-2.79776e-11
1.9984e-11
-9.99201e-11
-5.32907e-12
-2.84217e-11
-9.32587e-12
2.35367e-11
-1.19904e-11
-2.13252e-09
-7.99361e-12
1.37668e-11
-9.41469e-11
-3.10862e-12
-3.9968e-12
-5.4623e-11
-7.54952e-12
-2.60236e-10
-1.44329e-10
-2.07256e-09
2.44249e-11
-4.04121e-11
-2.88658e-11
-1.38112e-10
-2.62457e-10
-5.81757e-11
-1.75859e-10
-1.01252e-10
-6.26166e-11
-2.13563e-09
-7.41629e-11
2.88658e-11
-4.66294e-11
-7.9492e-11
-7.50511e-11
-1.02141e-10
-2.42473e-10
-2.59792e-10
-8.30447e-11
-2.0659e-09
7.99361e-12
1.37668e-11
-6.21725e-11
2.30926e-11
-1.11466e-10
-5.4623e-11
2.22045e-11
-2.59792e-10
-6.70575e-11
-2.13563e-09
-1.95399e-11
0
-3.9968e-11
-9.4591e-11
-2.6068e-10
-2.2915e-10
-2.18492e-10
-2.28262e-10
-6.26166e-11
-2.11164e-09
-1.25677e-10
-4.26326e-11
-3.28626e-11
-3.37508e-11
-2.66454e-12
-6.75016e-11
-1.75859e-10
-9.01501e-11
-8.79297e-11
-2.01839e-09
1.42109e-11
-1.07914e-10
-3.90799e-11
-1.74083e-10
-2.59792e-10
-8.26006e-11
-9.05942e-11
-2.4869e-10
3.10862e-12
1.04361e-10
-4.88498e-11
-2.75335e-11
-9.28146e-11
-4.44089e-11
-1.87406e-10
-1.86962e-10
-1.72307e-10
1.33227e-12
-4.26326e-11
1.19904e-11
1.19904e-11
1.33227e-11
-3.59712e-11
0
2.26485e-11
0
-1.33227e-12
-4.44089e-12
0
-1.24345e-11
-4.4853e-11
2.39808e-11
1.24345e-11
5.77316e-12
4.04121e-11
3.64153e-11
-6.66134e-12
5.90639e-11
-5.9952e-11
-2.66454e-12
2.62013e-11
-4.17444e-11
-1.77636e-12
1.11022e-11
-7.72715e-11
2.04281e-11
-5.41789e-11
-2.93099e-11
-5.10703e-11
1.33227e-12
-3.90799e-11
4.44089e-13
3.86358e-11
-6.66134e-11
-2.35367e-11
0
3.01981e-11
0
1.77636e-11
-4.44089e-13
1.5099e-11
2.53131e-11
4.66294e-11
1.03473e-10
7.72715e-11
-1.02141e-11
-9.14824e-11
4.92939e-11
8.26006e-11
9.76996e-12
2.62013e-11
-5.24025e-11
-2.66454e-11
8.34888e-11
2.93099e-11
9.4591e-11
0
-3.4639e-11
-9.4591e-11
-1.82077e-11
6.70575e-11
6.75016e-11
-1.06581e-11
2.57572e-11
9.4591e-11
-5.41789e-11
-9.19265e-11
4.44089e-12
8.30447e-11
4.44089e-13
-8.43769e-12
0
5.19584e-11
-7.14984e-11
-7.72715e-11
5.32907e-11
-1.42109e-11
5.32907e-11
5.32907e-11
5.77316e-12
7.90479e-11
-8.39329e-11
4.04121e-11
-2.04281e-11
-2.9754e-11
-5.41789e-11
1.55431e-11
-1.06581e-11
1.95399e-11
0
-1.15463e-11
6.88338e-11
1.90958e-11
2.04281e-11
-4.30767e-11
1.86962e-10
-1.81188e-10
3.10862e-11
4.88498e-12
-5.4623e-11
1.64313e-11
-6.17284e-11
-4.44089e-13
0
-3.55271e-11
3.41949e-11
1.51434e-10
0
-6.17284e-11
1.37668e-11
1.19904e-11
-5.86198e-11
7.10543e-12
0
-7.77156e-11
0
-1.46549e-11
-5.32907e-11
-7.37188e-11
-5.72875e-11
-5.63993e-11
-8.52651e-11
1.37668e-11
-7.72715e-11
0
0
-8.21565e-11
8.88178e-13
0
0
0
0
0
0
0
6.03961e-11
-5.32907e-11
0
1.77636e-11
-3.9968e-12
-4.44089e-13
-4.35207e-11
6.92779e-11
0
8.88178e-13
0
5.77316e-11
4.44089e-13
4.44089e-13
-5.72875e-11
-6.21725e-11
-9.10383e-11
5.68434e-11
-1.03029e-10
0
0
-8.43769e-12
4.44089e-13
8.88178e-13
3.19744e-11
-6.21725e-12
-8.43769e-12
1.46549e-11
-1.15463e-11
0
-2.04281e-11
3.5083e-11
-2.04281e-11
5.68434e-11
-3.55271e-11
6.21725e-11
3.28626e-11
-5.86198e-11
-9.14824e-11
-6.39488e-11
5.72875e-11
-7.06102e-11
5.72875e-11
0
0
0
0
-1.42109e-11
-4.44089e-13
0
0
7.72715e-11
0
8.88178e-13
-6.35048e-11
0
1.77636e-12
5.50671e-11
1.77636e-12
0
0
1.82077e-11
-3.64153e-11
0
-3.24185e-11
-2.84217e-11
1.95399e-11
3.68594e-11
-2.57572e-11
4.88498e-12
1.5854e-10
-1.74083e-10
1.5854e-10
3.86358e-11
-7.54952e-12
-2.62013e-11
1.77636e-11
3.41949e-11
-3.68594e-11
1.64313e-11
-8.03801e-11
6.66134e-12
2.66454e-11
0
-2.53131e-11
1.64313e-11
7.28306e-11
-4.13003e-11
-1.19904e-11
-4.44089e-13
-2.04281e-11
4.66294e-11
-7.81597e-11
-4.35207e-11
-1.24345e-11
3.24185e-11
-3.59712e-11
-3.86358e-11
-2.53131e-11
2.75335e-11
3.28626e-11
-2.35367e-11
-6.08402e-11
3.33067e-11
-3.77476e-11
-4.26326e-11
6.4837e-11
-3.24185e-11
-1.03473e-10
-7.81597e-11
2.93099e-11
9.28146e-11
-3.10862e-11
-1.03473e-10
1.5099e-11
1.33227e-11
-1.33227e-12
4.26326e-11
-8.30447e-11
-1.06581e-10
-7.41629e-11
-7.54952e-12
-7.28306e-11
7.72715e-11
-1.9984e-11
-9.54792e-11
-6.30607e-11
-1.64313e-11
-9.14824e-11
0
-4.35207e-11
3.33067e-11
-2.57572e-11
-2.53131e-11
-7.10543e-11
4.88498e-12
-2.62013e-11
-3.77476e-11
1.19904e-11
6.92779e-11
-2.53131e-11
-6.9722e-11
-2.53131e-11
-4.30767e-11
6.17284e-11
-4.44089e-12
-1.33227e-12
-9.50351e-11
-8.30447e-11
8.88178e-13
0
-5.86198e-11
7.41629e-11
-8.88178e-13
3.28626e-11
-5.24025e-11
-2.39808e-11
-4.70735e-11
-2.79776e-11
-2.62013e-11
-1.77636e-12
2.04281e-11
1.54987e-10
-3.9968e-12
4.44089e-13
0
4.75175e-11
-5.50671e-11
1.86517e-11
0
1.39888e-10
-1.5099e-10
-1.58096e-10
-7.99361e-12
-1.28786e-11
4.13003e-11
4.75175e-11
6.21725e-12
2.9754e-11
4.44089e-13
2.57572e-11
0
4.4853e-11
-2.04281e-11
4.44089e-11
4.66294e-11
1.15463e-11
0
0
-8.61533e-11
0
0
2.04281e-11
7.72715e-11
-6.39488e-11
-3.59712e-11
0
0
4.44089e-13
9.41469e-11
-5.9508e-11
-4.44089e-13
1.03029e-10
4.26326e-11
9.41469e-11
9.10383e-11
1.24345e-11
0
0
2.04281e-11
-4.44089e-13
0
2.04281e-11
7.81597e-11
9.10383e-11
5.32907e-12
5.77316e-12
1.73195e-11
0
2.04281e-11
5.77316e-11
-3.33067e-11
4.35207e-11
-2.44249e-11
4.88498e-11
4.44089e-11
1.15463e-11
0
0
7.72715e-11
0
-5.72875e-11
0
0
4.70735e-11
-8.88178e-13
4.44089e-13
5.86198e-11
1.11022e-11
0
-5.77316e-11
0
0
7.77156e-11
-1.42109e-11
-5.63993e-11
8.43769e-12
-1.46549e-11
0
7.72715e-11
5.72875e-11
-2.4869e-11
2.04281e-11
-2.35367e-11
4.66294e-11
4.79616e-11
1.02141e-11
0
0
0
-4.44089e-13
0
3.5083e-11
0
5.63993e-11
5.72875e-11
6.21725e-12
-6.66134e-12
8.39329e-11
-3.01981e-11
2.22045e-12
1.73639e-10
-1.4877e-10
1.17684e-10
7.72715e-11
5.01821e-11
-3.55271e-11
-3.37508e-11
8.92619e-11
8.43769e-12
1.01696e-10
1.46549e-11
-1.95399e-11
5.77316e-11
1.15463e-11
-3.90799e-11
-7.10543e-12
6.79456e-11
9.10383e-11
1.03473e-10
4.35207e-11
7.10543e-12
2.04281e-11
2.04281e-11
3.77476e-11
-3.06422e-11
6.08402e-11
5.10703e-11
0
-9.68114e-11
-8.4821e-11
-7.01661e-11
3.33067e-11
-8.4821e-11
7.10543e-11
6.70575e-11
-1.68754e-11
-3.73035e-11
8.30447e-11
9.4591e-11
-5.19584e-11
-8.61533e-11
2.62013e-11
4.30767e-11
1.37668e-11
1.11022e-11
9.72555e-11
-9.10383e-11
1.02585e-10
8.03801e-11
2.22045e-11
-6.30607e-11
4.30767e-11
-3.41949e-11
2.04281e-11
6.4837e-11
5.77316e-12
4.17444e-11
-4.44089e-13
-3.28626e-11
2.04281e-11
-2.62013e-11
-4.88498e-12
-3.4639e-11
1.01252e-10
2.04281e-11
2.39808e-11
-5.15143e-11
-1.33227e-11
-6.26166e-11
-4.35207e-11
8.74856e-11
-4.44089e-11
-3.55271e-12
-2.4869e-11
-2.4869e-11
1.28786e-11
6.83897e-11
1.19904e-11
-1.64313e-11
3.41949e-11
-2.70894e-11
-7.37188e-11
-2.04281e-11
-5.32907e-11
-4.44089e-12
-5.72875e-11
1.9984e-11
0
2.62013e-11
-1.84741e-10
-7.99361e-12
0
-1.90958e-11
-1.24345e-11
4.44089e-13
5.06262e-11
-8.88178e-13
0
1.85629e-10
0
0
1.46549e-10
0
2.88658e-11
-3.95239e-11
4.70735e-11
0
8.88178e-13
1.07025e-10
0
0
-6.79456e-11
0
5.9508e-11
5.72875e-11
-9.32587e-12
-2.66454e-11
0
-2.04281e-11
0
0
-2.04281e-11
-7.72715e-11
1.95399e-11
1.42109e-11
4.17444e-11
1.77636e-12
7.23865e-11
-9.41469e-11
5.9952e-11
5.41789e-11
-8.30447e-11
-4.17444e-11
-4.66294e-11
-4.4853e-11
-1.15463e-11
-2.4869e-11
4.44089e-13
-2.04281e-11
7.23865e-11
0
5.15143e-11
-7.77156e-11
1.42109e-11
1.03917e-10
0
-7.32747e-11
0
5.68434e-11
4.44089e-13
4.44089e-13
-2.26485e-11
0
-3.5083e-11
1.28786e-11
0
5.37348e-11
1.19904e-11
-3.4639e-11
0
5.68434e-11
2.08722e-11
4.44089e-13
-1.33227e-12
-2.22045e-12
-5.68434e-11
-5.01821e-11
1.90958e-11
0
5.15143e-11
0
1.68754e-11
2.93099e-11
1.11022e-11
5.72875e-11
-8.88178e-12
2.88658e-11
0
-5.77316e-11
-5.77316e-11
2.22045e-11
3.9968e-11
-5.37348e-11
-4.61853e-11
-4.39648e-11
4.61853e-11
-2.75335e-11
-1.33227e-12
6.92779e-11
1.85185e-10
9.76996e-12
-1.77636e-12
-8.43769e-12
-1.01696e-10
2.08189e-09
-1.90958e-11
4.44089e-11
-4.17444e-11
1.80744e-10
-1.5099e-10
8.88178e-13
-1.33227e-12
-1.08802e-10
2.04015e-09
2.15072e-09
2.62013e-11
3.9968e-11
-3.10862e-12
5.72875e-11
-1.82077e-11
9.32587e-12
-1.19904e-11
4.88498e-12
2.05125e-09
2.11786e-09
-4.79616e-11
3.77476e-11
-9.76996e-12
-2.84217e-11
3.95239e-11
-1.19904e-11
9.05942e-11
5.4623e-11
2.12808e-09
2.09699e-09
-8.88178e-13
-4.4853e-11
1.57208e-10
6.4837e-11
2.52687e-10
7.14984e-11
7.81597e-11
9.59233e-11
2.05036e-09
2.07123e-09
-3.68594e-11
3.95239e-11
-3.9968e-12
-1.95399e-11
5.4623e-11
5.86198e-11
1.24345e-11
3.15303e-11
2.1112e-09
2.08589e-09
-6.57252e-11
4.52971e-11
3.10862e-12
-5.32907e-12
3.10862e-11
8.39329e-11
3.95239e-11
5.90639e-11
2.13252e-09
2.0659e-09
1.95399e-11
3.86358e-11
1.08802e-10
4.13003e-11
9.05942e-11
9.41469e-11
2.9754e-11
3.19744e-11
2.08233e-09
2.12541e-09
-1.64313e-11
7.06102e-11
1.08802e-10
8.43769e-11
8.43769e-11
-1.06581e-11
9.41469e-11
4.30767e-11
2.04148e-09
2.12097e-09
1.90958e-11
5.63993e-11
9.37028e-11
4.17444e-11
-2.22045e-12
2.43361e-10
8.88178e-11
1.02585e-10
2.00462e-09
2.1978e-09
1.00808e-10
4.21885e-11
3.06422e-11
1.62093e-10
3.5083e-11
1.77636e-11
3.55271e-12
1.80744e-10
-4.57412e-11
2.12186e-09
-4.88498e-11
9.05942e-11
2.35367e-11
2.22045e-12
-1.38112e-10
1.51434e-10
-1.39e-10
7.86038e-11
2.08145e-09
2.18936e-09
-4.79616e-11
0
5.68434e-11
3.81917e-11
-1.55431e-11
2.44249e-11
4.4853e-11
1.06137e-10
2.01439e-09
2.03437e-09
3.06422e-11
1.07025e-10
8.12683e-11
7.50511e-11
6.26166e-11
5.4623e-11
1.10578e-10
7.50511e-11
2.16627e-09
2.08722e-09
7.99361e-12
1.82077e-11
6.61693e-11
7.50511e-11
1.5854e-10
1.33227e-12
9.01501e-11
4.4853e-11
2.07656e-09
2.09166e-09
3.06422e-11
2.22045e-12
7.99361e-11
7.50511e-11
2.66454e-12
-3.10862e-12
3.86358e-11
7.50511e-11
2.07745e-09
2.04903e-09
3.15303e-11
5.19584e-11
1.06581e-10
-2.22045e-12
-2.22045e-12
4.04121e-11
6.26166e-11
4.88498e-11
2.10632e-09
2.03437e-09
1.90958e-11
2.57572e-11
1.0969e-10
5.90639e-11
1.10578e-10
3.33067e-11
8.17124e-11
-3.10862e-12
2.11209e-09
2.13207e-09
3.06422e-11
6.88338e-11
9.59233e-11
5.77316e-11
2.88658e-11
7.59393e-11
1.64313e-11
-2.39808e-11
2.01794e-09
2.09432e-09
3.15303e-11
6.75016e-11
1.06581e-10
8.17124e-11
5.4623e-11
1.65645e-10
4.79616e-11
1.02141e-10
2.0135e-09
2.20401e-09
4.39648e-11
7.54952e-12
3.06422e-11
1.19016e-10
-1.5099e-10
0
1.54099e-10
1.61204e-10
-1.49214e-10
-1.66533e-10
-1.52323e-10
-2.22045e-12
-1.54543e-10
3.9968e-12
-1.81188e-10
-1.49214e-10
-1.52323e-10
-3.77476e-11
-9.9476e-11
-7.99361e-12
-4.08562e-11
-1.33227e-12
-2.93099e-11
-1.60316e-10
-7.99361e-12
-2.88658e-11
-1.33227e-12
-1.31894e-10
-1.01252e-10
-1.08358e-10
-2.62013e-11
-1.00364e-10
-2.62013e-11
-1.5099e-10
1.02141e-11
-2.62013e-11
-1.00364e-10
3.9968e-12
-1.00364e-10
-1.11022e-10
-2.05169e-10
-1.55875e-10
-1.97176e-10
5.77316e-12
-1.62093e-10
-2.39808e-11
-3.86358e-11
-5.10703e-11
-6.61693e-11
-1.75859e-10
-2.9754e-11
-6.4837e-11
-2.46914e-10
-1.77636e-12
-6.4837e-11
-2.9754e-11
-3.81917e-11
-1.5099e-10
-3.10862e-12
-5.55112e-11
-1.82521e-10
-1.95399e-11
1.77636e-12
-1.50102e-10
-3.41949e-11
-1.82521e-10
-1.10578e-10
3.55271e-12
-2.20268e-10
-1.02141e-10
-2.9754e-11
-4.52971e-11
-2.26485e-11
-1.77636e-12
-4.52971e-11
-1.33227e-12
-6.4837e-11
-2.06501e-10
-2.22045e-12
-6.26166e-11
-2.66454e-11
-1.53211e-10
-8.43769e-12
-1.54099e-10
-6.26166e-11
-8.43769e-12
-6.26166e-11
-8.43769e-12
-2.17604e-11
-2.06946e-10
-2.9754e-11
-1.69198e-10
-1.55875e-10
-1.50102e-10
-1.93179e-10
-1.33227e-12
-1.05249e-10
-1.50546e-10
-1.63425e-10
-1.54543e-10
-1.33227e-12
-1.6831e-10
-1.54543e-10
-1.56319e-10
-1.6831e-10
-1.33227e-12
-5.4623e-11
-4.88498e-12
-1.13687e-10
-1.55431e-10
-1.54099e-10
-1.51879e-10
-4.44089e-13
-1.54099e-10
-8.88178e-12
-1.52323e-10
-1.51879e-10
-5.77316e-12
-4.44089e-13
-4.44089e-11
-2.79776e-11
-9.9476e-11
-8.88178e-13
-1.54543e-10
-3.73035e-11
-2.9754e-11
-1.0969e-10
-1.17684e-10
-4.08562e-11
-4.88498e-11
-9.59233e-11
-1.90958e-11
-6.30607e-11
-2.14495e-10
-7.77156e-11
-4.44089e-12
-1.90958e-11
-6.12843e-11
-1.01252e-10
-1.24345e-11
-1.91402e-10
-8.30447e-11
-1.56319e-10
-4.44089e-13
-1.62093e-10
-3.10862e-11
-3.86358e-11
-8.74856e-11
-1.46549e-11
-1.5854e-10
-8.83738e-11
-1.42109e-11
-2.42029e-10
-8.9706e-11
-1.42109e-11
-8.83738e-11
-1.95399e-11
-2.37588e-10
2.53131e-11
-9.90319e-11
-2.01172e-10
-1.19904e-11
-4.57412e-11
-2.14495e-10
-8.39329e-11
-1.53655e-10
-9.9476e-11
-4.35207e-11
-2.19824e-10
-7.19425e-11
-6.57252e-11
-7.41629e-11
-8.88178e-11
-6.70575e-11
-1.42109e-11
-6.57252e-11
-1.24789e-10
-2.37588e-10
-1.73195e-11
-5.77316e-12
-7.68274e-11
-1.69642e-10
-2.39808e-11
-2.45581e-10
-1.06581e-11
-7.10543e-11
2.39808e-11
-2.39808e-11
-5.77316e-11
-1.61648e-10
-6.57252e-11
-2.60236e-10
-2.42473e-10
-2.58016e-10
-1.99396e-10
-6.57252e-11
-6.21725e-12
-2.14939e-10
-1.81188e-10
-1.83853e-10
-1.81188e-10
-1.82965e-10
-1.53655e-10
-1.79856e-10
-1.82965e-10
-1.81188e-10
-8.57092e-11
-1.5099e-10
1.77636e-12
1.28786e-11
-3.55271e-12
-1.04805e-10
-5.32907e-12
-1.51434e-10
1.76748e-10
1.77636e-12
4.44089e-13
-1.2168e-10
7.59393e-11
-9.01501e-11
-1.42109e-11
-1.0969e-10
-1.90958e-11
-9.14824e-11
7.10543e-12
3.06422e-11
-9.9476e-11
1.37668e-11
3.64153e-11
3.01981e-11
-1.37668e-11
6.26166e-11
2.17604e-11
-2.79776e-11
-1.37668e-11
0
9.9476e-11
-1.37668e-11
4.26326e-11
7.23865e-11
-1.33227e-11
9.85878e-11
-8.43769e-12
-4.66294e-11
-2.62013e-11
-4.70735e-11
4.44089e-13
5.72875e-11
-3.33067e-11
-6.26166e-11
-7.01661e-11
5.77316e-11
6.92779e-11
-9.76996e-11
-3.9968e-11
-6.92779e-11
-6.17284e-11
3.10862e-12
-3.68594e-11
-5.28466e-11
-4.66294e-11
-1.28786e-11
-6.66134e-12
-2.79776e-11
4.66294e-11
-4.44089e-13
9.05942e-11
-6.21725e-12
-3.37508e-11
9.76996e-11
-7.01661e-11
1.24345e-11
0
-2.08722e-11
-3.90799e-11
-2.08722e-11
7.10543e-12
3.4639e-11
-4.44089e-13
4.13003e-11
4.44089e-11
-4.52971e-11
-1.42109e-11
-6.79456e-11
0
-8.43769e-11
0
-6.12843e-11
-1.86517e-11
0
-2.75335e-11
1.59872e-11
-5.59552e-11
-2.04281e-11
3.06422e-11
-9.76996e-11
1.08802e-10
-5.59552e-11
-2.04281e-11
8.88178e-13
-1.82521e-10
3.9968e-12
4.44089e-13
5.32907e-12
1.66089e-10
-1.52323e-10
0
3.9968e-12
-4.30767e-11
-3.37508e-11
3.10862e-12
0
-1.53655e-10
1.54099e-10
0
3.55271e-12
0
0
-2.75335e-11
5.32907e-11
2.84217e-11
2.04281e-11
0
0
1.24345e-11
2.79776e-11
2.04281e-11
-4.75175e-11
-8.30447e-11
4.92939e-11
5.10703e-11
0
-2.30926e-11
-2.26485e-11
2.39808e-11
-9.14824e-11
0
-2.26485e-11
7.68274e-11
-8.83738e-11
4.39648e-11
3.15303e-11
-6.88338e-11
-7.06102e-11
-8.79297e-11
-7.01661e-11
-1.24345e-11
0
-1.64313e-11
0
5.77316e-11
0
5.72875e-11
5.68434e-11
0
-2.13163e-11
0
5.68434e-11
-6.4837e-11
1.9984e-11
4.26326e-11
8.43769e-12
4.26326e-11
2.93099e-11
8.79297e-11
-6.4837e-11
2.04281e-11
4.21885e-11
3.5083e-11
6.79456e-11
3.5083e-11
6.75016e-11
-4.44089e-13
-2.35367e-11
7.54952e-12
3.37508e-11
6.79456e-11
0
-6.9722e-11
-5.77316e-11
-4.44089e-13
7.54952e-12
0
-4.44089e-13
0
6.43929e-11
-3.41949e-11
0
6.35048e-11
-4.4853e-11
6.39488e-11
0
8.65974e-11
9.05942e-11
0
6.30607e-11
-4.4853e-11
6.39488e-11
6.12843e-11
2.62013e-11
1.82077e-11
2.62013e-11
-9.32587e-12
1.78968e-10
2.62013e-11
6.12843e-11
2.62013e-11
-9.76996e-12
-2.79776e-11
-1.77636e-12
1.57652e-10
-6.12843e-11
1.33227e-12
1.51434e-10
-1.65645e-10
1.5099e-10
-4.44089e-13
0
7.10543e-12
1.06137e-10
5.50671e-11
7.23865e-11
4.66294e-11
9.81437e-11
-5.81757e-11
-2.22045e-12
9.68114e-11
-2.70894e-11
0
-2.04281e-11
1.37668e-11
-6.26166e-11
-9.05942e-11
1.46549e-11
-7.4607e-11
2.75335e-11
-9.9476e-11
8.88178e-12
2.70894e-11
1.82077e-11
-6.66134e-12
-9.76996e-11
-4.21885e-11
6.21725e-11
-1.86517e-11
4.04121e-11
1.82077e-11
-7.01661e-11
9.28146e-11
8.08242e-11
9.14824e-11
-3.55271e-12
-2.53131e-11
1.06581e-11
9.05942e-11
3.37508e-11
8.08242e-11
-6.70575e-11
-3.28626e-11
7.23865e-11
7.63833e-11
2.66454e-11
-4.04121e-11
-3.59712e-11
-9.68114e-11
-6.92779e-11
-1.86517e-11
-4.04121e-11
3.33067e-11
0
7.63833e-11
3.19744e-11
1.68754e-11
-6.57252e-11
7.72715e-11
-4.30767e-11
0
-8.88178e-12
-8.4821e-11
4.61853e-11
-7.68274e-11
1.11022e-11
-7.06102e-11
-2.26485e-11
8.39329e-11
8.74856e-11
7.72715e-11
6.12843e-11
0
4.4853e-11
0
-3.41949e-11
-9.76996e-12
-6.61693e-11
7.54952e-12
5.10703e-11
-1.11022e-11
-9.76996e-12
2.04281e-11
0
1.81188e-10
-9.76996e-12
1.5099e-10
-2.79776e-11
-1.80744e-10
-9.76996e-12
-3.10862e-11
-1.78968e-10
0
3.37508e-11
0
0
1.54987e-10
0
-1.61648e-10
0
0
-1.54099e-10
2.84217e-11
-1.55431e-11
-2.84217e-11
4.13003e-11
0
0
-3.19744e-11
-2.84217e-11
8.57092e-11
1.86517e-11
7.41629e-11
-1.15463e-11
-1.82077e-11
-1.82077e-11
8.21565e-11
5.15143e-11
6.43929e-11
7.68274e-11
7.10543e-12
8.30447e-11
-6.66134e-11
1.02141e-11
-2.35367e-11
-3.15303e-11
6.83897e-11
7.68274e-11
6.26166e-11
0
-3.9968e-11
-6.21725e-12
-5.72875e-11
-6.03961e-11
2.22045e-12
-5.10703e-11
-1.73195e-11
2.88658e-11
7.10543e-12
7.72715e-11
-6.03961e-11
-3.41949e-11
1.73195e-11
2.30926e-11
-5.01821e-11
-4.66294e-11
-7.06102e-11
-7.28306e-11
-4.4853e-11
-3.37508e-11
2.9754e-11
4.44089e-12
-5.72875e-11
-4.4853e-11
-6.75016e-11
-3.81917e-11
4.04121e-11
-2.04281e-11
-4.4853e-11
-5.72875e-11
-4.4853e-11
2.22045e-11
0
3.9968e-11
1.59872e-11
-3.68594e-11
-6.9722e-11
0
2.57572e-11
0
2.17604e-11
1.46549e-11
0
5.32907e-11
-4.57412e-11
7.19425e-11
-6.30607e-11
7.54952e-12
1.90958e-11
-8.65974e-11
1.90958e-11
-2.84217e-11
-4.30767e-11
5.32907e-12
9.76996e-12
5.77316e-12
-2.04281e-11
-1.78968e-10
4.44089e-12
-4.30767e-11
4.88498e-12
1.6076e-10
2.13163e-11
-7.54952e-12
-1.06581e-11
-1.86517e-11
1.33227e-12
-3.9968e-12
7.10543e-12
-1.51434e-10
-8.43769e-12
3.55271e-12
7.10543e-12
-1.28786e-11
2.66454e-12
-7.19425e-11
0
-6.21725e-12
5.37348e-11
-6.21725e-12
-6.30607e-11
2.79776e-11
7.10543e-12
-1.02141e-11
7.54952e-12
6.26166e-11
7.68274e-11
1.59872e-11
8.79297e-11
-6.75016e-11
8.83738e-11
-1.64313e-11
2.22045e-11
-2.93099e-11
7.72715e-11
5.9952e-11
1.00364e-10
-6.17284e-11
-3.33067e-11
-3.95239e-11
-6.9722e-11
5.32907e-11
-8.57092e-11
-1.33227e-11
-6.83897e-11
-9.37028e-11
-4.35207e-11
6.66134e-11
-3.06422e-11
6.4837e-11
-4.79616e-11
5.86198e-11
1.00364e-10
3.41949e-11
-2.35367e-11
-6.21725e-12
4.9738e-11
-3.55271e-12
3.01981e-11
3.01981e-11
2.57572e-11
-5.10703e-11
-2.62013e-11
-5.4623e-11
-5.41789e-11
-6.08402e-11
-8.70415e-11
1.90958e-11
-7.54952e-12
6.39488e-11
1.02141e-11
8.88178e-12
0
-3.37508e-11
6.08402e-11
-5.24025e-11
5.63993e-11
7.68274e-11
-8.43769e-11
6.21725e-12
-7.72715e-11
-2.84217e-11
4.88498e-11
-2.04281e-11
3.41949e-11
-1.86517e-11
6.70575e-11
8.34888e-11
-3.81917e-11
-2.08722e-11
-4.52971e-11
-3.37508e-11
-7.99361e-12
-3.5083e-11
0
-1.37668e-11
-3.64153e-11
1.78968e-10
2.62013e-11
1.6076e-10
2.26485e-11
1.78968e-10
0
1.51434e-10
-4.44089e-13
-5.32907e-12
-4.44089e-13
0
-5.32907e-12
0
-5.32907e-12
4.44089e-13
-2.79776e-11
1.59872e-11
-4.44089e-13
-4.21885e-11
-6.21725e-12
-4.44089e-13
3.24185e-11
0
-8.61533e-11
-1.95399e-11
-5.10703e-11
-8.74856e-11
0
2.4869e-11
-5.9508e-11
-7.19425e-11
-8.79297e-11
0
-8.83738e-11
-6.03961e-11
-4.44089e-13
-2.04281e-11
-7.72715e-11
3.4639e-11
-4.44089e-13
-4.44089e-13
3.4639e-11
-8.88178e-13
5.72875e-11
0
0
6.03961e-11
-7.06102e-11
5.41789e-11
4.21885e-11
-3.4639e-11
-7.54952e-12
0
6.08402e-11
3.41949e-11
0
1.90958e-11
0
-4.39648e-11
2.79776e-11
7.77156e-11
1.95399e-11
-4.44089e-13
2.57572e-11
-1.28786e-11
-2.08722e-11
4.44089e-11
7.06102e-11
4.44089e-11
-6.08402e-11
1.07025e-10
4.4853e-11
-2.04281e-11
4.4853e-11
1.02141e-11
0
-6.08402e-11
0
-6.08402e-11
2.26485e-11
0
-3.73035e-11
-4.44089e-13
-4.17444e-11
-4.88498e-11
-8.57092e-11
-8.43769e-12
2.57572e-11
3.19744e-11
-2.26485e-11
-9.81437e-11
2.57572e-11
4.04121e-11
3.24185e-11
-7.77156e-11
-2.62013e-11
0
-1.77636e-12
-2.13163e-11
3.01981e-11
1.76748e-10
-3.06422e-11
-2.62013e-11
-3.10862e-11
-1.59428e-10
4.92939e-11
8.88178e-12
1.37668e-11
8.92619e-11
1.56763e-10
3.9968e-12
1.6076e-10
1.54099e-10
6.30607e-11
1.54099e-10
1.62093e-10
1.66089e-10
-4.44089e-13
9.85878e-11
1.50102e-10
1.61648e-10
1.59872e-11
7.99361e-12
3.95239e-11
1.77636e-12
-3.9968e-12
2.4869e-10
-3.9968e-12
3.55271e-12
-3.9968e-12
1.50102e-10
1.5099e-10
4.04121e-11
1.51434e-10
-3.10862e-12
4.30767e-11
4.79616e-11
1.33227e-12
3.64153e-11
-2.93099e-11
7.10543e-11
7.68274e-11
4.17444e-11
2.39364e-10
1.24345e-11
5.77316e-11
1.70974e-10
7.37188e-11
2.55795e-10
8.39329e-11
1.59872e-11
1.88738e-10
-3.33067e-11
2.05169e-10
-2.62013e-11
-9.32587e-12
-4.44089e-12
1.75859e-10
7.10543e-12
1.51434e-10
2.20268e-10
2.1938e-10
6.9722e-11
6.66134e-12
7.01661e-11
5.81757e-11
2.1716e-10
7.54952e-11
2.16716e-10
6.43929e-11
2.19824e-10
1.15463e-11
-3.24185e-11
1.51879e-10
1.74971e-10
7.68274e-11
1.02141e-11
1.6831e-10
6.26166e-11
1.89182e-10
1.32339e-10
8.92619e-11
0
8.88178e-11
7.99361e-12
1.50102e-10
-3.10862e-12
1.75415e-10
2.53131e-11
-4.88498e-12
5.15143e-11
1.46549e-11
7.10543e-11
2.53131e-11
7.32747e-11
1.77636e-11
1.86517e-10
-1.52323e-10
1.84741e-10
3.68594e-11
-1.52323e-10
5.77316e-12
-1.5099e-10
1.6076e-10
4.44089e-13
5.24025e-11
-1.4877e-10
1.54987e-10
5.9952e-11
1.33227e-12
3.9968e-12
1.73639e-10
1.54987e-10
5.9952e-11
1.58096e-10
1.82965e-10
1.53655e-10
2.88658e-11
6.70575e-11
1.56763e-10
1.55431e-10
3.77476e-11
2.88658e-11
6.26166e-11
4.84057e-11
3.95239e-11
2.3892e-10
3.95239e-11
-2.35367e-11
3.95239e-11
2.59792e-10
2.39364e-10
-5.77316e-12
2.38476e-10
3.95239e-11
1.23901e-10
1.08802e-10
1.00364e-10
-8.43769e-12
-2.08722e-11
2.44249e-11
-8.43769e-12
7.01661e-11
1.82521e-10
9.59233e-11
5.4623e-11
1.5854e-10
9.59233e-11
1.6076e-10
-1.77636e-12
2.93099e-11
1.5854e-10
-2.22045e-12
1.5854e-10
-3.10862e-12
4.04121e-11
3.01981e-11
2.09166e-10
8.88178e-11
2.01172e-10
1.82521e-10
1.8785e-10
9.90319e-11
1.95399e-11
-1.33227e-11
7.50511e-11
1.61648e-10
2.9754e-11
1.55431e-10
8.08242e-11
1.53655e-10
4.44089e-12
7.50511e-11
1.61648e-10
2.09166e-10
7.59393e-11
8.30447e-11
2.2915e-10
8.30447e-11
2.22489e-10
2.08722e-10
5.01821e-11
5.77316e-12
5.55112e-11
2.79776e-11
2.39364e-10
-2.26485e-11
1.75415e-10
-2.4869e-11
8.61533e-11
1.55431e-10
-2.26485e-11
5.01821e-11
-2.4869e-11
8.30447e-11
3.59712e-11
1.52323e-10
1.33227e-12
1.71418e-10
1.51879e-10
-1.49658e-10
3.15303e-11
3.59712e-11
1.82965e-10
1.60316e-10
-1.49214e-10
-1.49214e-10
-1.56319e-10
-1.49214e-10
-1.49214e-10
-1.54543e-10
-1.49214e-10
-1.54987e-10
-1.49214e-10
1.50546e-10
-9.90319e-11
-2.9754e-11
-5.10703e-11
-2.88658e-11
-2.9754e-11
-4.57412e-11
-2.93099e-11
-4.4853e-11
-8.83738e-11
3.55271e-12
-1.33227e-12
-1.11022e-10
-3.77476e-11
-4.84057e-11
-4.84057e-11
-1.33227e-12
-4.84057e-11
-5.63993e-11
-4.84057e-11
-1.52323e-10
-2.39808e-11
-2.39808e-11
-4.4853e-11
5.77316e-12
5.77316e-12
-1.74971e-10
1.11022e-11
-2.09166e-10
1.37668e-11
-1.75859e-10
-4.79616e-11
-1.90514e-10
-3.81917e-11
-2.02061e-10
-2.02061e-10
-1.54987e-10
-2.02061e-10
-5.68434e-11
-2.02061e-10
-1.6831e-10
-2.9754e-11
5.32907e-12
-6.12843e-11
-1.83853e-10
-1.83853e-10
-1.55431e-10
-1.83853e-10
-1.42553e-10
-1.55431e-10
-1.33227e-12
-2.9754e-11
-2.84217e-11
-6.39488e-11
-2.62013e-11
-2.62013e-11
-1.55431e-10
-2.62013e-11
-1.54543e-10
-2.17604e-11
-2.66454e-12
1.59872e-11
-2.9754e-11
-3.77476e-11
1.77636e-12
-1.43441e-10
-4.84057e-11
1.77636e-12
-3.81917e-11
3.9968e-12
-4.44089e-12
-1.33227e-12
5.32907e-12
-5.77316e-11
-1.83853e-10
-1.83853e-10
-1.55431e-10
-1.83853e-10
-1.54543e-10
-1.83853e-10
-1.55431e-10
-2.22045e-12
-1.55431e-10
-1.69642e-10
-1.63425e-10
-1.63425e-10
-1.63425e-10
-1.63425e-10
-3.37508e-11
-1.63425e-10
1.55875e-10
-1.52323e-10
-1.82965e-10
-1.50102e-10
-1.52323e-10
5.32907e-12
-1.53655e-10
-1.52323e-10
-1.72751e-10
-1.52323e-10
1.50102e-10
-4.75175e-11
-8.88178e-13
-8.70415e-11
-4.84057e-11
-8.88178e-13
-4.4853e-11
-4.84057e-11
-3.9968e-12
-4.84057e-11
4.88498e-12
-6.21725e-12
-6.75016e-11
-1.77636e-12
-2.22045e-12
-6.57252e-11
-7.59393e-11
-6.57252e-11
2.13163e-11
-6.57252e-11
-1.57208e-10
-1.00808e-10
-3.10862e-11
-5.24025e-11
-7.01661e-11
-4.44089e-13
-2.02505e-10
-7.28306e-11
-2.01617e-10
-5.9952e-11
-1.24345e-11
-8.88178e-11
-2.42917e-10
-2.22045e-12
-2.42917e-10
-2.42917e-10
-2.42473e-10
-2.42917e-10
8.43769e-12
-2.42917e-10
-1.81632e-10
-4.84057e-11
-1.5099e-11
-4.70735e-11
-2.02505e-10
-2.02505e-10
-2.02505e-10
-2.02505e-10
-2.03393e-10
-1.54987e-10
-1.5854e-10
-1.42109e-11
-8.61533e-11
1.64313e-11
-1.15463e-11
-8.57092e-11
-2.19824e-10
-1.15463e-11
-1.51434e-10
-6.21725e-12
-1.79856e-10
1.02141e-11
-4.79616e-11
-1.00808e-10
1.77636e-12
-1.90514e-10
1.02141e-11
1.77636e-12
-8.43769e-12
-5.19584e-11
-1.69642e-10
-1.46549e-11
-5.50671e-11
1.06581e-11
-1.6831e-10
-2.42473e-10
-2.19824e-10
-1.6831e-10
-1.58984e-10
-2.19824e-10
-1.81188e-10
-1.81632e-10
-1.47438e-10
-5.32907e-12
-1.81188e-10
-1.53211e-10
-1.81188e-10
-1.81188e-10
1.49214e-10
-1.81188e-10
1.55875e-10
1.77636e-12
-2.84217e-11
8.88178e-13
1.77636e-12
-2.84217e-11
3.9968e-12
3.55271e-11
1.57208e-10
1.77636e-12
4.44089e-12
7.59393e-11
7.10543e-12
7.54952e-12
6.21725e-12
7.10543e-12
2.75335e-11
1.46549e-11
3.73035e-11
7.37188e-11
-1.5099e-10
-2.75335e-11
8.61533e-11
3.55271e-11
2.57572e-11
2.53131e-11
-4.84057e-11
2.62013e-11
7.63833e-11
2.62013e-11
1.56319e-10
-7.01661e-11
-2.57572e-11
-4.39648e-11
1.46549e-11
1.46549e-11
4.44089e-12
7.10543e-12
3.33067e-11
7.10543e-12
1.73639e-10
-5.01821e-11
1.42109e-11
3.55271e-11
-5.01821e-11
2.57572e-11
-2.13163e-11
-5.01821e-11
6.08402e-11
-5.01821e-11
1.55431e-11
2.79776e-11
1.82077e-11
-6.39488e-11
-5.90639e-11
7.54952e-12
-4.70735e-11
-1.95399e-11
-4.08562e-11
-8.74856e-11
-1.52767e-10
-6.9722e-11
2.66454e-12
3.55271e-11
2.79776e-11
0
-9.76996e-11
2.79776e-11
-4.75175e-11
2.79776e-11
-1.50546e-10
6.21725e-12
-6.9722e-11
-4.13003e-11
2.22045e-12
-3.4639e-11
-2.93099e-11
-5.68434e-11
3.5083e-11
2.66454e-12
-1.47438e-10
-4.17444e-11
1.77636e-11
-1.02141e-11
-5.9508e-11
7.10543e-12
-9.85878e-11
-2.04281e-11
-4.66294e-11
-5.90639e-11
8.88178e-13
-1.81188e-10
8.43769e-12
1.63425e-10
7.99361e-12
9.32587e-12
7.99361e-12
7.99361e-12
1.83409e-10
7.99361e-12
-4.44089e-13
3.55271e-12
3.59712e-11
0
3.55271e-12
-1.54099e-10
3.55271e-12
3.10862e-12
2.35367e-11
3.55271e-12
0
0
0
0
0
0
0
0
-7.06102e-11
4.26326e-11
0
-8.30447e-11
-2.26485e-11
2.22045e-12
-8.88178e-12
-2.26485e-11
4.70735e-11
-2.35367e-11
2.22045e-12
-2.35367e-11
-1.82077e-11
0
2.79776e-11
0
6.9722e-11
2.84217e-11
1.33227e-11
6.9722e-11
0
-4.44089e-13
0
5.68434e-11
0
-4.17444e-11
0
0
5.68434e-11
0
-4.26326e-11
0
0
-1.77636e-11
3.37508e-11
-9.19265e-11
-1.73195e-11
-1.77636e-11
-1.77636e-11
-1.77636e-11
3.19744e-11
-6.4837e-11
-5.32907e-12
-5.10703e-11
7.41629e-11
-8.43769e-12
-5.10703e-11
2.26485e-11
0
-5.10703e-11
-9.32587e-12
-5.10703e-11
6.12843e-11
0
4.21885e-11
8.08242e-11
-5.50671e-11
4.26326e-11
0
-5.55112e-11
-4.88498e-11
0
-5.32907e-12
-2.13163e-11
-2.04281e-11
4.44089e-13
-1.64313e-11
-2.04281e-11
6.39488e-11
-1.64313e-11
0
3.4639e-11
-8.43769e-12
2.30926e-11
1.51434e-10
0
2.26485e-11
1.51434e-10
2.26485e-11
2.26485e-11
0
2.26485e-11
-8.88178e-13
1.5099e-10
-5.77316e-12
5.06262e-11
-5.32907e-12
1.82521e-10
-4.88498e-12
-3.86358e-11
-1.56763e-10
-5.32907e-12
1.77636e-12
2.17604e-11
-8.70415e-11
3.06422e-11
2.17604e-11
-2.62013e-11
-7.54952e-12
1.37668e-11
3.9968e-12
1.33227e-11
-1.77636e-11
-1.90958e-11
1.64313e-11
0
2.17604e-11
1.64313e-11
1.33227e-12
2.17604e-11
0
2.17604e-11
0
7.01661e-11
-5.06262e-11
8.52651e-11
-8.12683e-11
8.43769e-12
-4.44089e-12
-2.13163e-11
7.54952e-12
-8.08242e-11
4.44089e-13
9.28146e-11
-4.30767e-11
-3.9968e-12
6.21725e-11
-4.30767e-11
7.10543e-12
5.01821e-11
-1.02585e-10
5.01821e-11
-2.26485e-11
-4.44089e-12
5.77316e-12
9.76996e-12
8.61533e-11
1.64313e-11
-4.35207e-11
4.35207e-11
4.75175e-11
8.26006e-11
1.52323e-10
8.39329e-11
2.35367e-11
6.21725e-12
-1.33227e-12
2.35367e-11
7.63833e-11
-4.88498e-12
3.59712e-11
-4.88498e-12
1.52767e-10
-1.19904e-11
3.28626e-11
2.93099e-11
-2.35367e-11
-3.01981e-11
9.76996e-11
2.22045e-11
-9.90319e-11
-2.35367e-11
0
2.79776e-11
5.77316e-12
9.76996e-12
8.57092e-11
1.64313e-11
7.72715e-11
4.30767e-11
0
8.21565e-11
1.52323e-10
1.9984e-11
3.33067e-11
-1.53211e-10
1.40332e-10
-9.76996e-12
1.77636e-12
3.59712e-11
-1.4877e-10
3.59712e-11
0
1.54099e-10
-3.55271e-11
-1.19904e-11
1.54987e-10
1.54099e-10
1.54987e-10
1.54987e-10
1.51879e-10
1.54987e-10
6.21725e-12
0
0
8.79297e-11
0
0
4.44089e-13
0
7.68274e-11
4.44089e-13
-1.19904e-11
0
8.30447e-11
-2.44249e-11
-3.9968e-12
8.30447e-11