/*--------------------------------*- C++ -*----------------------------------*\
  =========                 |
  \\      /  F ield         | OpenFOAM: The Open Source CFD Toolbox
   \\    /   O peration     | Website:  https://openfoam.org
    \\  /    A nd           | Version:  10
     \\/     M anipulation  |
\*---------------------------------------------------------------------------*/
FoamFile
{
    format      ascii;
    class       volScalarField;
    location    "1.1";
    object      gradTx;
}
// * * * * * * * * * * * * * * * * * * * * * * * * * * * * * * * * * * * * * //

dimensions      [0 -1 0 1 0 0 0];

internalField   nonuniform List<scalar> 
46825
(
1.49086e-13
-1.32471e-13
-2.43622e-11
-1.68322e-13
3.86931e-11
-7.10549e-13
-1.85834e-11
5.93787e-13
4.13953e-12
-4.47299e-13
2.98106e-13
1.32386e-13
1.80503e-13
1.07895e-12
7.74275e-14
-1.1225e-12
-2.55412e-11
3.89746e-13
2.63424e-11
2.98125e-13
-2.09955e-11
6.01706e-12
2.01224e-11
-2.69551e-11
-1.97276e-11
-9.99948e-14
-4.92741e-13
4.74312e-13
7.20227e-13
-1.48912e-13
-1.48691e-13
1.4107e-13
-2.32026e-11
-5.067e-13
2.30149e-11
3.25633e-13
2.86304e-11
-6.42196e-13
-2.84099e-11
2.97386e-13
2.02029e-11
2.08062e-11
5.89209e-13
-3.76315e-13
7.87245e-14
-3.71501e-13
2.72747e-11
-2.67044e-13
-2.72213e-11
4.45643e-13
-2.00567e-11
-2.33041e-13
4.33064e-13
-1.95971e-11
2.37875e-11
-8.13455e-14
-2.38438e-11
-1.25597e-13
-1.53433e-13
2.97125e-13
1.76997e-11
6.8388e-12
1.96255e-12
-7.62492e-12
-1.91746e-11
5.91091e-13
-8.74448e-13
1.26696e-13
3.76544e-13
2.97462e-13
-4.46889e-13
-1.42844e-13
9.63993e-12
-1.55733e-13
-9.5918e-12
2.53793e-13
-2.1067e-11
1.99516e-13
2.12499e-11
0
1.491e-13
-1.70669e-11
-4.76137e-14
1.67556e-11
2.18935e-13
-2.36098e-13
6.50762e-13
2.92657e-13
-5.81075e-13
-1.49101e-13
1.49119e-13
-1.23762e-15
-9.05901e-13
-6.98666e-14
5.94183e-13
-1.82756e-13
-4.87199e-13
-3.49144e-14
5.29112e-13
1.49126e-13
-2.98394e-13
-8.98411e-14
1.6463e-13
4.15936e-13
2.98667e-15
-1.67543e-14
1.91287e-11
-1.82262e-13
5.87662e-13
1.98457e-11
0
-5.95427e-14
-2.49936e-11
1.9317e-11
2.49346e-11
-1.94838e-11
4.87635e-14
4.28629e-13
7.39383e-14
1.49332e-13
0
4.90019e-12
3.96849e-11
-4.01084e-11
8.90881e-13
6.69904e-14
-4.99388e-13
-7.05441e-11
1.19327e-11
-1.49297e-13
-1.49194e-13
-8.52315e-12
1.14907e-12
4.75308e-11
-1.14002e-11
-3.7758e-11
-3.68551e-13
4.78744e-13
-2.24291e-13
0
2.98316e-13
8.71194e-12
-4.32573e-11
4.20938e-11
6.40082e-13
-4.88115e-11
4.94921e-11
-4.22417e-11
7.21626e-12
-1.04409e-12
-1.49173e-13
-4.00122e-12
8.32999e-12
-9.3465e-13
-5.69694e-13
4.98321e-13
-8.10013e-14
3.75483e-13
4.11329e-13
2.98332e-13
1.92514e-11
-6.28259e-12
-2.47597e-11
7.37421e-13
5.52376e-11
-5.54581e-11
-3.61506e-13
3.17542e-12
-7.47898e-13
0
0
8.23293e-12
-1.35078e-11
-1.62154e-12
2.05763e-12
-3.09958e-13
-2.20266e-13
-4.62422e-15
-1.29105e-11
3.34516e-11
5.07825e-12
5.37253e-12
2.71115e-15
-1.40269e-12
2.01836e-11
1.1019e-12
-4.14373e-11
7.99266e-14
2.17297e-11
4.48082e-13
2.98441e-13
-5.36732e-14
-4.59298e-13
-3.27603e-13
-7.08003e-14
7.95209e-13
2.03454e-13
-2.15123e-13
-2.18117e-11
-2.13398e-11
-2.87885e-11
-2.79955e-12
5.06004e-13
-2.58578e-11
-7.3624e-13
3.20864e-11
5.08602e-14
-3.23758e-11
-8.88615e-14
1.49191e-13
3.67072e-11
3.70968e-11
-2.22343e-13
1.96851e-13
2.83653e-13
-3.32432e-13
-4.11068e-13
4.02665e-11
-3.99562e-11
-1.49247e-13
-4.47221e-12
-4.56389e-12
1.29187e-12
-2.4974e-12
-6.36183e-13
3.9218e-13
4.31577e-13
-3.90642e-11
4.03574e-11
2.98189e-13
-4.37941e-11
-3.5244e-11
8.98292e-10
-2.97547e-07
-3.98094e-09
1.01735e-09
8.33683e-09
6.33223e-08
7.36628e-11
5.51191e-11
1.49007e-13
7.63233e-11
1.44754e-09
-2.98219e-07
1.68491e-07
-3.79027e-08
-4.83417e-07
1.08538e-07
-2.11533e-13
-4.42555e-11
1.43053e-11
6.91096e-14
1.54333e-09
-3.0391e-07
1.79606e-07
-4.07316e-08
-5.0633e-07
1.11098e-07
-6.52119e-14
-2.98014e-13
-2.5923e-11
1.63981e-11
1.42714e-09
-2.66206e-07
1.47479e-07
-3.27714e-08
-4.19255e-07
9.6875e-08
-4.52871e-13
-8.6403e-12
1.02888e-11
-4.4724e-11
9.98332e-11
-9.1816e-09
-6.82145e-09
1.57064e-09
1.81517e-08
-3.96702e-10
-1.92613e-13
2.56463e-11
2.98511e-13
2.78577e-13
-6.00818e-11
6.1135e-11
-9.94341e-13
1.97839e-13
7.92536e-13
-4.7602e-11
4.71236e-11
-7.46289e-12
1.49171e-13
-1.64445e-13
4.61549e-14
-2.08392e-13
2.33324e-11
-1.36204e-13
-2.27963e-11
-1.0337e-13
-8.15549e-14
1.49187e-13
-2.38093e-11
4.18904e-13
2.32925e-11
-2.14678e-13
1.89849e-11
1.42348e-11
-1.91464e-11
-1.30645e-11
-1.18422e-13
-1.04198e-12
5.25871e-11
5.18395e-11
8.87972e-13
-7.87338e-11
-1.03941e-11
2.13368e-12
7.75777e-11
1.07066e-11
-5.5076e-13
-4.45838e-13
5.90347e-13
1.32771e-10
3.89425e-09
-6.13498e-07
-1.86787e-08
-3.90326e-09
2.4372e-08
1.63807e-06
-2.72005e-08
-3.17427e-11
-4.51747e-11
9.36059e-09
0.000161365
-1.16451
-0.00940229
0.000600221
0.0253508
1.04376
1.00317e-05
3.13943e-11
-5.19991e-11
7.7285e-09
0.000167111
-1.84373
-0.0316502
0.0018785
0.0897711
1.31852
9.19773e-06
1.64067e-11
-1.04e-11
7.62668e-09
0.000167757
-1.85371
-0.0330533
0.00198282
0.0922527
1.32323
9.16021e-06
5.8737e-11
-2.34691e-11
8.35881e-09
0.000165725
-1.82076
-0.0326978
0.00187176
0.0914506
1.30023
9.30718e-06
2.62537e-11
8.2665e-12
9.55551e-09
0.000161025
0.033157
-0.0271764
-0.031422
-0.0349951
-0.10031
7.09905e-06
-5.75711e-12
1.48588e-13
-1.20539e-13
9.35002e-09
5.43277e-08
3.04517e-09
-4.92688e-10
-1.27058e-08
-1.09201e-07
-1.49782e-10
6.09297e-12
-2.12796e-11
-8.98106e-14
2.19328e-11
-5.55699e-14
-5.39952e-14
1.92669e-13
1.80834e-11
-3.32572e-13
-1.76465e-11
5.95335e-13
0
2.34013e-11
2.8465e-11
7.36469e-12
-2.75428e-11
-6.2014e-12
-1.75356e-12
-6.77659e-13
-1.55817e-14
-2.24493e-11
2.96633e-13
1.52941e-12
7.89745e-11
1.02436e-08
3.42636e-09
-3.59384e-10
-6.91812e-09
1.89378e-09
-1.15022e-10
1.08327e-11
1.14579e-11
-1.393e-09
-3.70164e-07
-0.0048102
0.00140654
0.000239992
-0.00139769
0.00172035
1.42504e-07
-2.70391e-11
-1.76935e-10
-6.33158e-07
-1.29985
0.00114635
1.78721e-10
-2.32164e-10
-1.08438e-06
-1.57622
0.00223836
2.16427e-10
-2.07599e-10
-1.05302e-06
-1.57938
0.00224485
2.51535e-10
-1.81325e-10
-1.1453e-06
-1.57225
0.00221925
1.81711e-10
8.9635e-12
4.70186e-08
-0.003139
-0.000104622
-1.9982e-11
3.23446e-11
1.18611e-11
8.97461e-08
3.31343e-05
2.30241e-06
-3.98004e-07
-9.96705e-06
4.34994e-06
7.10942e-10
-2.00333e-11
1.4862e-12
-1.97935e-11
-6.34377e-13
2.70423e-11
2.20845e-13
-4.78339e-12
1.35121e-12
-7.70997e-13
7.46125e-12
1.02569e-11
-1.99211e-11
2.3692e-11
1.96912e-11
-2.24042e-11
7.13103e-13
-5.47595e-13
-1.24928e-12
4.91428e-13
-3.75868e-14
-1.4871e-13
-2.62819e-11
-3.42266e-11
8.55396e-11
1.13474e-08
4.50398e-09
-3.97848e-10
-9.13609e-09
2.20189e-09
-2.00597e-14
4.45611e-13
1.08813e-11
-1.58875e-09
-6.2297e-07
0.0430703
0.00121577
0.000250757
-0.00215308
0.00183758
2.14804e-07
-6.91091e-12
-1.58256e-10
-5.78654e-07
-1.33505
0.001899
1.2996e-10
-2.17349e-10
-1.1483e-06
-1.64545
0.00239996
2.51123e-10
-1.96004e-10
-1.10184e-06
-1.64999
0.00240917
2.54583e-10
-1.37695e-10
-1.19962e-06
-1.64
0.00236705
1.45761e-10
1.574e-11
5.09501e-08
-0.00187599
-0.000112309
-1.08816e-11
4.70891e-11
-1.46919e-12
9.53064e-08
3.90256e-05
3.09358e-06
-5.57278e-07
-1.28982e-05
4.89477e-06
9.75652e-10
5.94221e-13
1.20422e-11
-2.56247e-11
-1.21194e-11
2.66559e-11
1.03142e-12
-7.95795e-13
-2.81848e-11
-1.90765e-11
4.73452e-11
3.99995e-11
-5.94998e-13
4.98814e-11
1.98057e-11
-2.92933e-11
4.98681e-13
-2.67365e-11
-1.12136e-12
7.25102e-12
1.62568e-13
1.93435e-11
-2.52642e-11
-3.93702e-11
4.55228e-11
1.11321e-08
4.49075e-09
-4.15483e-10
-9.24182e-09
2.24787e-09
7.69191e-14
0
1.16264e-11
-1.74875e-09
-6.55915e-07
0.0433456
0.00121669
0.000168311
-0.00215672
0.00184727
2.29381e-07
-7.50481e-12
-1.79835e-10
-5.45985e-07
-1.3368
0.00191069
1.55128e-10
-2.13841e-10
-1.09514e-06
-1.64884
0.0024099
2.11091e-10
-2.14295e-10
-1.06278e-06
-1.65317
0.0024184
2.26846e-10
-1.49254e-10
-1.16593e-06
-1.64306
0.00237404
1.63444e-10
7.21423e-12
5.11284e-08
-0.00187651
-0.000112635
-1.11873e-11
1.4868e-13
-2.54555e-13
9.6067e-08
3.94653e-05
3.25865e-06
-5.52337e-07
-1.30391e-05
4.90327e-06
9.94705e-10
-6.69143e-12
0
2.69425e-11
2.11229e-13
-5.32841e-11
-1.44301e-13
2.81914e-11
4.27602e-12
-2.73879e-13
-4.96206e-12
0
3.06578e-11
-2.46687e-13
-3.10558e-11
1.72851e-12
5.75162e-13
-1.46911e-12
-2.45903e-11
2.34068e-11
2.38029e-11
-2.29254e-11
2.08173e-12
-6.28757e-13
3.18616e-11
1.11919e-08
4.52133e-09
-5.22585e-10
-9.14868e-09
2.22446e-09
-1.10468e-13
1.48743e-13
4.88891e-11
1.18844e-10
-5.78259e-07
0.0433801
0.00121693
8.57605e-05
-0.00223859
0.00184694
2.1982e-07
-4.41695e-13
-1.58022e-10
-5.47703e-07
-1.33689
0.00191236
1.62336e-10
-1.8119e-10
-1.09568e-06
-1.64892
0.00241078
2.17018e-10
-2.07794e-10
-1.061e-06
-1.65351
0.00241884
2.04336e-10
-1.617e-10
-1.16402e-06
-1.64314
0.00234704
1.86556e-10
9.13385e-12
5.11757e-08
-0.00186942
-2.99765e-05
4.71455e-12
3.42164e-12
-7.45042e-12
9.59851e-08
3.94857e-05
3.27712e-06
-5.41969e-07
-1.30904e-05
4.90256e-06
1.042e-09
7.29081e-12
-2.15812e-11
-2.99792e-12
2.15186e-11
-2.74441e-11
5.06788e-13
3.06162e-11
-1.76281e-12
4.81665e-13
3.80816e-13
-1.48862e-13
-2.60541e-11
-2.65462e-11
2.48121e-11
2.36281e-11
-2.46177e-11
4.67547e-12
-9.0928e-13
-2.74395e-11
-1.10445e-12
-1.48922e-13
-1.48752e-13
6.46746e-14
2.71757e-11
1.13138e-08
4.38624e-09
-3.91394e-10
-9.05038e-09
2.15388e-09
2.076e-11
-8.33269e-12
3.12363e-11
1.59895e-10
-5.91365e-07
0.0433301
0.00121627
0.000168254
-0.00223745
0.00184784
2.25479e-07
-9.87061e-12
-1.90478e-10
-5.71895e-07
-1.33639
0.00191003
1.62673e-10
-2.09249e-10
-1.12117e-06
-1.64785
0.0024053
2.07798e-10
-2.52252e-10
-1.08643e-06
-1.65218
0.0024129
1.90747e-10
-1.73958e-10
-1.19418e-06
-1.64205
0.00236309
1.27993e-10
5.74902e-12
5.1098e-08
-0.00188407
-0.000296357
1.6215e-12
4.46474e-13
-2.06102e-12
9.59199e-08
3.90696e-05
3.21742e-06
-4.58334e-07
-1.28038e-05
4.86849e-06
9.31605e-10
7.7399e-12
0
1.90713e-11
-8.91959e-14
-1.79907e-11
8.98214e-13
-5.12237e-13
-1.22885e-12
2.13439e-11
-1.08434e-13
-2.11459e-11
-2.97844e-13
-2.17912e-13
6.66154e-13
2.09682e-11
-8.07004e-14
-2.06765e-11
-2.58143e-13
4.23444e-14
-1.17021e-13
-1.4896e-13
2.97597e-13
-1.02543e-12
-2.61397e-11
6.16195e-09
1.47063e-09
-1.04787e-10
-3.31045e-09
1.68406e-09
8.62001e-11
-2.26238e-11
2.6837e-11
1.01024e-10
-5.26556e-07
0.036559
0.000949864
8.32192e-05
-0.00164009
0.0018251
1.96945e-07
-2.00527e-11
-3.27873e-11
-3.60973e-07
-1.3145
0.00165916
1.69011e-11
-2.33688e-11
-4.29334e-07
-1.60017
0.00187685
1.24821e-11
-2.20644e-11
-3.98209e-07
-1.60362
0.00188039
2.1047e-11
7.57949e-12
-5.19757e-07
-1.5959
0.00186916
1.85076e-11
1.77017e-12
4.34797e-08
-0.00302653
-9.80896e-05
3.83479e-12
1.48861e-13
4.26484e-11
8.4904e-08
2.76681e-05
1.97461e-06
-2.60437e-07
-7.87625e-06
3.72977e-06
8.38664e-10
0
0
-5.90019e-14
-2.77514e-11
-4.77215e-13
2.87315e-11
8.30131e-13
-3.38683e-11
-1.51481e-13
3.33392e-11
0
-4.9449e-11
-2.0825e-11
2.90402e-11
4.77927e-13
6.71948e-14
2.94586e-11
-1.92125e-13
-3.00757e-11
-8.51917e-14
0
-4.28613e-11
-3.4362e-11
-1.78615e-12
-3.34772e-11
-7.54834e-12
4.93277e-13
1.53891e-11
1.56044e-11
-1.30956e-12
-7.59098e-12
-8.99435e-12
3.67091e-11
-4.18425e-07
5.96573e-06
1.72689e-07
1.44704e-08
-3.35507e-07
-2.55977e-05
6.9724e-08
-8.40474e-12
-8.45111e-12
2.74423e-09
-0.000807182
-2.54124e-06
3.23466e-11
-1.45149e-13
2.67078e-09
-0.00083064
-2.66486e-06
1.45143e-13
2.3951e-11
2.66891e-09
-0.000831586
-2.67278e-06
8.56382e-12
2.78361e-11
2.69132e-09
-0.000829482
-2.63578e-06
9.03471e-12
-5.89996e-13
1.56879e-09
-0.000750009
-1.35959e-06
-8.99645e-12
1.19101e-12
-1.82811e-11
2.25742e-09
-2.39396e-08
-1.79853e-09
2.66051e-10
6.35761e-09
3.73441e-08
-1.60285e-11
2.9776e-13
0
-3.42423e-13
5.18386e-14
3.39507e-13
-7.44962e-12
-5.92466e-14
6.93771e-12
1.00511e-13
1.31377e-12
2.97928e-13
0
1.59905e-14
-2.64827e-14
3.21497e-11
2.09911e-11
-3.17291e-11
1.27241e-12
-2.00897e-11
-2.34831e-11
1.90665e-11
8.9291e-13
-1.10783e-13
1.48923e-12
9.78875e-13
-1.00591e-12
-5.73079e-13
4.06259e-11
6.47248e-12
-4.76248e-11
7.14341e-12
-8.10393e-12
-3.12998e-11
9.327e-11
7.79581e-11
-1.37365e-12
-9.19518e-11
-1.51172e-12
-7.31458e-11
1.41017e-11
-8.25191e-12
-8.72362e-12
1.85213e-11
-8.21617e-13
-1.56661e-11
-3.05349e-11
-4.26925e-11
-3.50345e-11
1.11532e-11
4.27844e-11
-7.95946e-12
2.89456e-13
-3.71496e-13
1.56993e-11
3.66369e-12
-1.44721e-13
0
-8.87118e-14
6.48668e-12
2.91421e-13
-3.31522e-11
-5.63029e-11
-2.14881e-11
-4.74553e-12
6.29185e-12
-2.16635e-11
-1.53328e-11
1.73019e-11
3.0134e-13
-1.93902e-12
4.20833e-12
-1.98954e-12
-5.33887e-13
1.80539e-13
-1.18279e-13
-1.23549e-11
4.46836e-13
6.20555e-14
-7.90919e-13
1.05364e-13
-3.06674e-14
-7.37423e-13
-2.14112e-13
-2.56179e-11
3.40331e-13
2.6216e-11
-4.63186e-11
-2.048e-13
4.57315e-11
-1.9371e-11
1.38628e-11
1.92915e-11
-1.33605e-11
-2.71363e-13
1.57157e-13
-1.48942e-13
6.24977e-12
2.22389e-13
-4.14072e-11
4.15755e-11
2.29925e-13
-1.84179e-13
-6.10018e-11
6.85561e-11
-5.9276e-12
4.61277e-12
2.94572e-13
-9.50026e-13
1.04343e-10
3.48643e-12
-5.89792e-13
1.48523e-12
-2.00159e-12
-3.21361e-12
1.20929e-12
-1.06053e-11
-1.45253e-13
4.31888e-13
1.49369e-12
-5.90556e-13
0
0
1.26753e-12
4.0317e-11
1.46454e-13
-2.89052e-13
-1.15629e-12
2.08139e-13
-2.50252e-12
2.43621e-11
-1.4742e-11
-4.35818e-13
-1.23804e-13
9.4415e-13
1.26898e-11
2.68735e-11
-2.94653e-13
2.23261e-13
3.29839e-11
1.63934e-11
-3.90366e-11
-2.17307e-11
-4.03284e-11
-2.92868e-13
-2.03608e-11
-1.9837e-13
2.37694e-13
-8.10797e-13
8.372e-13
-2.83161e-13
-1.04183e-12
-2.07018e-11
-4.3808e-11
-1.45578e-13
4.29264e-11
1.90922e-11
-2.03385e-11
-1.7668e-11
1.68579e-13
-1.15976e-12
-1.4894e-13
7.44638e-13
6.08553e-13
-4.60327e-15
-9.68366e-12
2.34678e-13
9.90423e-12
2.06437e-11
2.59898e-11
-2.12785e-11
-2.65099e-11
0
-1.00667e-12
5.95795e-13
4.23664e-11
-4.13895e-11
-3.92808e-11
3.87524e-11
1.76531e-12
-2.27238e-12
3.40742e-11
6.6273e-12
-1.27258e-11
-2.37756e-12
4.06824e-12
1.84646e-10
-6.25721e-11
3.80152e-13
-3.24068e-13
1.31655e-11
-2.94546e-13
1.45225e-13
-5.04636e-13
1.33359e-10
1.75877e-11
2.84641e-11
2.81762e-11
1.58027e-11
-9.79776e-13
3.76605e-11
-1.57494e-11
5.77993e-13
-1.85312e-12
6.93767e-12
-1.62984e-11
9.10311e-12
-7.55251e-12
5.45585e-11
-4.05157e-11
1.50301e-11
1.9897e-11
1.42885e-11
-1.28555e-11
4.32159e-13
-1.25903e-11
3.53504e-12
-2.81288e-11
-3.11996e-11
-1.20785e-12
1.28539e-12
-7.05759e-13
4.83588e-13
-4.10034e-11
4.1677e-11
-5.13838e-13
0
0
1.51557e-13
2.22066e-13
-4.58659e-13
-7.67178e-13
-2.56996e-11
2.37346e-11
2.84684e-11
-2.31226e-11
-1.93609e-12
2.38293e-12
2.62913e-12
7.38609e-13
2.74682e-11
-1.75269e-13
-1.53897e-11
2.17928e-13
-1.19968e-11
2.30634e-11
2.30854e-11
-6.54709e-12
8.59858e-13
2.97885e-13
5.65564e-11
-5.63563e-11
3.98191e-11
-3.96726e-11
-2.94186e-13
3.89836e-11
-6.69599e-12
4.71317e-11
3.95026e-11
7.71488e-11
0
0
-7.38235e-13
1.97855e-10
-1.16989e-10
4.43935e-11
-1.06045e-11
-1.08951e-11
-1.70126e-12
-1.59587e-12
-1.89681e-11
9.00644e-12
-8.38395e-12
4.15923e-11
-9.06723e-11
-1.50171e-11
6.93841e-12
-5.03057e-11
-1.86542e-11
1.18635e-10
-7.04614e-12
1.44554e-13
-7.26411e-13
-2.80735e-13
-4.91123e-13
-6.20012e-12
1.16222e-12
2.68117e-11
-4.49586e-11
8.46978e-11
-4.69897e-11
4.56656e-11
3.92912e-11
2.88987e-11
5.55576e-11
-5.51843e-11
6.06022e-11
-1.23791e-10
6.18493e-11
-3.61449e-13
6.48059e-13
-2.39612e-11
0
5.20072e-13
-2.44166e-11
-2.37473e-13
5.49366e-11
-1.69109e-13
-3.02489e-11
-1.80661e-13
-1.47811e-13
0
5.95762e-13
3.02048e-13
6.40781e-13
-1.0882e-13
-4.14387e-13
-1.55627e-12
1.47457e-13
1.77924e-12
2.00958e-11
2.04061e-11
-2.11301e-11
5.72389e-12
-4.73454e-11
1.14981e-12
2.72727e-11
-2.85566e-11
5.16394e-13
-2.9411e-13
-3.26567e-13
-7.14311e-12
2.75535e-11
2.76492e-11
1.50264e-13
0
-2.3576e-12
-1.54926e-12
5.74632e-13
3.59046e-12
1.67945e-11
0
-4.36341e-13
4.05277e-13
3.04022e-13
-7.26042e-14
1.03269e-11
1.44808e-13
2.64431e-13
4.04898e-11
1.72653e-11
-1.44808e-13
-6.51662e-12
1.33768e-11
3.98431e-12
-1.77366e-11
5.64768e-12
-3.56392e-11
-2.70993e-11
3.83706e-12
9.47194e-13
0
-4.71621e-12
8.40053e-12
4.7797e-11
-6.38507e-11
1.6506e-11
-2.69411e-11
-2.79734e-11
-6.03474e-13
-5.60097e-11
5.58921e-11
1.63543e-13
-3.30723e-13
-4.73093e-13
1.22875e-13
-4.46525e-13
3.55985e-11
3.84812e-13
-3.55133e-11
-2.96342e-11
-3.25386e-13
2.89412e-11
5.95429e-13
3.07584e-11
-2.2236e-13
-3.11302e-11
-1.48961e-13
2.3103e-13
-2.45247e-11
-4.27708e-13
2.44137e-11
-2.5742e-13
1.10473e-13
5.87723e-14
-1.12902e-13
-2.9797e-13
1.19063e-12
5.01362e-14
6.22086e-11
-1.10177e-10
4.75622e-11
-4.89342e-11
4.96397e-11
1.16363e-12
-2.40671e-12
-6.69864e-12
0
-1.25095e-12
2.2301e-12
-9.74691e-13
1.74236e-10
-1.57104e-12
4.48969e-14
2.91025e-14
-1.28546e-11
-1.47476e-13
-7.87098e-12
-4.63899e-13
-3.03137e-11
4.2815e-11
-6.85079e-12
4.35648e-13
1.60593e-13
4.33047e-12
-7.81291e-12
-1.30695e-12
-8.71334e-13
-9.98759e-13
-8.7965e-11
1.36581e-11
7.11586e-12
1.89508e-12
-5.90774e-12
-3.59044e-11
-1.30672e-11
1.45771e-13
-1.12109e-11
9.54267e-12
2.14965e-12
2.4103e-12
-1.13575e-11
1.04228e-12
-1.05461e-11
1.26397e-11
-4.65526e-12
4.14435e-13
-4.53257e-13
-6.82652e-11
6.97896e-11
2.4845e-13
-2.62051e-11
0
-2.142e-13
1.95021e-13
-1.5118e-13
1.72653e-14
3.30592e-11
2.35476e-11
-3.34656e-11
-2.46255e-11
-4.46956e-13
7.44828e-13
8.71046e-13
-7.12944e-13
-1.44433e-13
4.60438e-13
2.01162e-14
-1.47376e-13
-3.65885e-14
-1.5065e-13
-2.98006e-13
-2.58966e-11
-2.5609e-11
-5.95658e-13
4.44506e-13
2.72138e-14
5.68527e-13
6.70948e-13
2.94504e-13
-1.09947e-13
1.44418e-11
1.10593e-11
-1.9216e-12
-1.71863e-12
-2.22088e-12
-1.37261e-12
-8.23062e-11
6.60017e-12
3.76658e-13
2.76196e-12
-6.6367e-12
1.45656e-13
-2.25174e-13
-2.98261e-11
1.09384e-12
-3.24827e-11
-7.39726e-12
-4.22304e-11
7.43304e-11
5.99961e-11
8.70294e-13
0
-6.66585e-13
-1.47668e-11
1.5431e-11
-3.19116e-12
-1.45662e-12
3.57455e-12
-2.42546e-11
-2.70195e-11
-2.7384e-11
1.53401e-11
-1.23832e-11
-8.60965e-13
1.79368e-11
9.43973e-12
8.19078e-12
2.39247e-13
-1.16372e-12
4.52461e-13
2.611e-13
-5.21825e-11
5.18219e-11
2.46639e-11
-2.47281e-11
2.97843e-13
-3.51642e-11
-9.18028e-13
3.53921e-11
1.85334e-13
-1.66852e-13
4.03107e-13
-2.50889e-13
-3.40761e-11
-4.95006e-14
3.44192e-11
0
-9.98902e-14
1.29034e-13
1.36648e-13
1.92884e-14
-8.20911e-14
-3.45294e-13
3.71376e-14
-5.02564e-14
1.48993e-13
8.03498e-12
2.00189e-15
3.99229e-11
-3.91831e-11
1.23883e-12
-2.0884e-12
4.11317e-13
1.47123e-12
-1.06768e-13
-3.63209e-11
9.57827e-12
-1.40998e-11
1.43159e-12
-2.31638e-12
5.36156e-13
1.06081e-13
6.67734e-13
2.42892e-13
0
-2.03373e-11
1.45381e-13
-3.89923e-11
9.00454e-11
-6.07545e-12
-2.77675e-11
-5.93119e-12
4.06253e-11
-5.37522e-11
1.36784e-11
9.98206e-12
1.38881e-11
1.1391e-13
-9.4093e-14
-2.86563e-11
-2.6764e-11
1.45374e-13
-6.93144e-13
4.14965e-11
3.65049e-11
2.03529e-12
-1.47386e-13
-1.93214e-13
1.09373e-11
1.25809e-11
2.22559e-11
4.06477e-11
3.19353e-11
2.11311e-12
-2.23172e-12
1.33858e-12
-1.28403e-13
-1.96393e-13
-6.24222e-13
6.43467e-14
2.06971e-11
-3.87388e-12
-2.52003e-11
5.50553e-12
2.41891e-13
-4.57246e-11
-1.95234e-13
-1.14413e-12
-4.74869e-14
4.59257e-11
2.5032e-11
0
2.29547e-11
4.32825e-13
-2.27172e-11
-3.28998e-14
-5.58672e-13
-9.70589e-14
1.93411e-13
-1.41816e-13
2.98008e-13
1.96406e-11
-6.50948e-11
4.23108e-11
-7.88021e-13
8.21644e-14
-3.29993e-13
-6.14676e-11
6.02256e-11
1.17303e-12
-7.74051e-12
-1.63533e-11
-2.68305e-12
9.78279e-13
-6.7244e-11
-9.99464e-11
8.71965e-12
2.84359e-12
-8.97094e-11
8.0631e-11
-8.3977e-12
-1.45302e-13
6.95226e-13
3.62416e-11
4.35964e-13
2.62968e-11
2.89105e-13
-1.40098e-12
1.02905e-12
-5.65474e-11
7.22777e-12
-6.50502e-12
4.6043e-11
-2.31807e-11
1.29173e-11
9.83003e-12
4.79471e-12
7.16452e-12
1.70097e-12
7.8413e-11
-2.29572e-11
-1.47352e-13
5.6632e-13
-2.75093e-11
2.08596e-11
-2.94725e-13
-4.61545e-12
-1.10325e-12
-2.07611e-13
3.67922e-13
-5.24341e-13
5.17689e-11
-5.10039e-11
-8.75671e-11
8.93994e-11
-4.467e-13
-2.98011e-13
1.97588e-11
-2.82405e-11
-1.98593e-11
2.54306e-11
-3.85364e-14
-2.80272e-11
-2.73231e-11
3.14431e-11
2.80137e-11
-4.47031e-13
2.618e-14
-2.37683e-11
1.40355e-11
1.26083e-12
-5.96744e-11
2.31855e-11
4.53276e-11
2.20702e-11
2.14643e-11
-6.54913e-12
8.76774e-13
-1.48984e-12
-4.68409e-13
1.65271e-13
-4.71475e-13
3.27848e-14
-1.15052e-12
1.87002e-12
3.1717e-11
-6.18995e-12
8.17945e-11
-1.11281e-10
-9.6233e-11
8.05546e-13
1.62471e-12
-9.53892e-11
2.48424e-12
-9.67308e-14
-2.35807e-11
-3.7797e-12
-3.13553e-12
1.12331e-10
1.25009e-11
-1.88958e-12
2.89271e-13
4.89636e-11
-2.37041e-11
1.49449e-11
-7.6657e-12
7.95516e-12
4.9375e-14
2.94034e-11
1.62217e-11
1.44643e-13
-2.90731e-13
-4.12217e-11
5.60634e-11
-1.31304e-11
0
1.47405e-13
-1.17383e-13
-2.00208e-11
4.14234e-12
-1.79849e-11
5.98712e-11
4.75274e-11
9.05971e-13
-5.6926e-12
5.74418e-12
2.72393e-15
8.63406e-13
-1.62659e-12
-4.16565e-11
1.31075e-11
0
3.42464e-13
1.78475e-13
2.41308e-14
-1.34039e-13
-4.89258e-13
3.69624e-13
6.90559e-13
-3.487e-13
-5.96255e-13
4.47369e-13
-1.81076e-13
-2.56127e-11
-1.94636e-11
2.50994e-11
1.92429e-11
-1.96929e-11
-4.43086e-11
-3.86884e-12
2.02859e-11
7.74691e-12
-5.57986e-13
1.19163e-12
-5.6935e-13
-1.83798e-13
-2.72805e-13
-2.6625e-13
5.3585e-13
-4.6707e-11
1.80327e-11
4.42766e-11
3.72154e-11
-4.32137e-14
1.15909e-12
-3.77701e-11
9.78107e-11
8.98164e-13
3.50995e-13
2.42048e-12
-3.24724e-12
-2.89984e-11
-5.53565e-12
-1.4427e-10
-1.70638e-11
-2.56441e-11
-2.69834e-11
-3.33158e-11
7.87366e-13
-5.18036e-11
1.4506e-13
-2.7129e-11
-5.86181e-12
-4.49137e-13
-3.27678e-11
5.80267e-13
1.45719e-13
3.95223e-11
-5.41549e-11
-4.80933e-12
-6.5575e-12
1.81571e-11
4.34126e-11
8.03496e-11
-4.18359e-11
8.85818e-13
-7.90026e-12
-6.37768e-13
0
-4.0121e-11
4.06671e-11
-3.34952e-13
-3.95589e-11
9.36046e-11
-5.47354e-11
0
4.68365e-11
2.40332e-11
4.96286e-12
2.4203e-13
-4.94784e-11
1.9005e-11
2.16949e-11
-2.45019e-11
-1.33813e-12
3.43097e-12
-1.49254e-13
1.9913e-13
-1.43305e-13
-4.79063e-13
-1.4159e-13
-4.43121e-14
1.97963e-11
2.03323e-11
-2.07521e-11
-2.07497e-11
-7.16246e-12
-1.86341e-11
-1.07264e-11
9.88786e-12
8.89217e-14
2.16181e-13
7.94665e-14
-4.52142e-13
-9.0587e-13
-2.47757e-11
4.69594e-11
-9.96211e-12
7.66723e-11
-5.78388e-13
7.04269e-13
8.47465e-11
-5.61821e-14
5.07274e-12
1.79548e-13
4.44542e-13
1.4676e-13
-7.83693e-14
2.62572e-13
1.52216e-12
8.95362e-12
8.78146e-13
4.1441e-11
3.39134e-11
-3.60836e-11
-1.52218e-11
0
5.3419e-13
-8.38908e-13
-1.46326e-13
-1.46374e-13
3.68407e-11
3.02579e-11
2.73676e-13
4.36727e-11
-8.80831e-12
3.30415e-11
3.91712e-11
-1.43637e-13
-6.22176e-11
1.60077e-11
2.56752e-11
2.57784e-11
4.82377e-11
-1.04225e-10
5.55585e-11
-3.9154e-14
3.76463e-13
-9.45031e-13
3.93063e-11
1.1945e-12
2.98556e-13
4.73505e-13
3.28764e-13
3.31976e-13
-5.80745e-13
-1.37716e-13
-2.37708e-11
-2.36085e-11
2.41783e-11
2.35898e-11
0
7.79841e-13
2.74578e-13
-1.06664e-12
-1.03418e-13
9.11408e-14
3.73184e-13
-1.53176e-13
-3.98657e-13
0
1.08959e-11
4.38761e-11
1.19551e-12
-2.06727e-13
1.07771e-12
-1.59528e-12
5.94631e-13
3.4337e-13
-8.99585e-14
0
-8.17991e-12
5.15377e-11
7.47995e-11
6.34068e-13
9.48775e-11
4.75653e-11
1.53393e-12
-3.03596e-13
8.27856e-11
-1.33922e-12
9.33008e-12
-2.40766e-11
-4.47904e-11
5.22151e-11
-6.22475e-12
-1.05052e-11
1.21888e-11
-1.2995e-10
1.86847e-11
-1.28834e-11
2.95935e-13
9.66884e-13
-1.69348e-11
2.14241e-11
-6.66444e-12
0
3.71087e-13
7.08955e-11
-7.7219e-12
6.96777e-12
3.61493e-11
3.49788e-11
2.61068e-11
3.71216e-13
0
1.49303e-13
-1.65611e-13
-3.74859e-11
3.5975e-11
3.21773e-12
-4.11899e-11
4.02116e-11
1.21134e-12
-1.79625e-14
2.58383e-11
-3.2232e-11
2.9609e-12
3.5082e-11
-3.09592e-13
1.52383e-14
-5.78635e-14
5.68883e-12
-2.53582e-13
-5.35002e-12
0
1.95029e-11
2.0307e-11
9.23733e-13
-3.71776e-13
-7.89863e-13
1.96607e-14
4.52811e-11
4.54308e-13
-4.51814e-11
1.48878e-13
0
1.25791e-12
-1.60789e-13
-2.3707e-12
1.18661e-12
5.75239e-13
-2.15717e-13
3.44489e-13
-5.04024e-13
6.84761e-12
-1.36663e-11
7.10457e-11
-5.7934e-11
1.17472e-12
3.16755e-13
-2.51975e-13
-2.03147e-11
3.70257e-11
-3.6249e-11
0
-3.89985e-11
-7.73547e-11
4.42214e-11
-4.30998e-14
-9.18068e-13
3.94312e-13
4.16205e-11
2.52144e-11
1.4753e-12
2.49202e-11
-3.60234e-11
-2.67793e-11
-1.30053e-11
5.67441e-11
-5.30938e-11
3.90467e-13
-4.21477e-11
-2.17114e-11
-1.42502e-13
8.30476e-12
7.11617e-12
-1.30572e-11
6.32097e-13
-7.40489e-13
2.20603e-12
5.00156e-11
1.60312e-12
-7.47046e-11
4.93354e-11
-1.64629e-11
1.48309e-13
-4.31318e-11
5.99876e-11
2.2619e-11
1.0117e-12
1.07151e-13
-5.27111e-13
-2.0444e-11
-3.86881e-11
-5.48993e-12
-2.97167e-13
-6.27194e-11
7.50838e-11
-1.09079e-10
-7.2613e-14
-4.81934e-12
-1.09114e-12
9.13341e-11
3.68907e-11
-6.09445e-12
-5.12119e-11
-8.47437e-11
3.77367e-11
1.60565e-13
-4.88517e-11
4.9037e-11
1.20305e-13
-3.75582e-13
-5.25712e-13
6.10554e-12
2.97743e-13
2.16521e-13
2.3989e-13
2.25299e-11
-3.58356e-13
-2.0016e-13
7.82478e-14
-2.22403e-11
-5.96924e-13
-7.44531e-13
7.4233e-13
7.56183e-13
-1.90983e-13
-1.62179e-13
-3.27812e-14
2.53543e-11
2.02549e-11
-3.57435e-12
-2.04378e-11
-2.15275e-11
2.26987e-11
-1.57043e-13
-4.33823e-11
-3.21483e-11
2.11776e-11
3.04597e-12
-2.5086e-14
5.47698e-11
-5.25943e-12
-3.0863e-11
1.4814e-13
1.73181e-11
9.02539e-13
-1.84616e-12
1.17603e-12
-5.88236e-13
2.93845e-13
5.08477e-11
-5.15724e-11
6.96658e-12
-1.47983e-13
1.60789e-11
-1.47119e-11
-1.94465e-13
1.186e-12
-8.87228e-13
2.94639e-13
3.89772e-11
-1.74024e-11
-5.9202e-13
1.1984e-11
-4.61132e-12
-1.49522e-11
-7.21379e-13
-9.59159e-12
2.88735e-11
-6.72813e-12
1.47037e-11
-2.10287e-12
-7.39871e-13
1.98263e-11
-7.23095e-12
-1.27463e-11
-4.88124e-14
2.07263e-11
-3.97769e-11
2.28417e-11
-1.52527e-11
-2.36496e-11
-1.36143e-11
-1.48002e-13
-3.22358e-11
7.22591e-12
-4.34715e-11
-5.93195e-13
2.23034e-11
1.43504e-11
-1.59874e-11
-9.51645e-12
2.99015e-11
1.88166e-11
-5.7612e-12
-2.53877e-11
1.4896e-13
-1.20192e-12
3.46278e-13
2.57971e-13
-4.15172e-11
-1.26313e-11
-1.97091e-11
-1.48373e-13
-7.10865e-12
-3.92987e-11
1.96544e-11
-5.82063e-13
4.65812e-13
2.30612e-11
-5.52771e-13
-2.23927e-11
0
4.45377e-13
3.97375e-13
-3.49643e-13
2.24713e-11
6.8038e-14
-2.30047e-11
-2.83018e-13
3.46064e-13
6.53503e-14
0
4.44611e-13
1.74638e-13
5.7683e-13
4.08215e-13
8.76147e-12
-1.53644e-13
-2.74069e-11
2.88887e-13
1.80398e-11
-2.96402e-13
4.41394e-11
1.99496e-11
-2.45018e-11
-6.31408e-13
-2.5991e-13
-1.2586e-12
1.80509e-13
1.13977e-12
-4.36801e-14
1.48118e-13
1.76121e-11
-4.3236e-12
-8.0189e-13
2.1434e-11
2.68648e-13
-2.19586e-13
2.49597e-11
2.60494e-11
-2.32821e-11
-2.3534e-11
3.12112e-11
5.31455e-13
-3.1009e-11
-3.67891e-12
-2.64452e-13
3.28753e-12
2.26099e-11
-3.43519e-14
-2.25835e-11
-1.4792e-13
0
3.10597e-11
2.14034e-13
-3.14581e-11
8.50351e-14
-3.28989e-13
2.46571e-11
-3.58245e-13
-2.74762e-11
-2.07046e-12
-2.45522e-11
-3.93348e-13
2.46162e-11
3.67088e-13
3.56808e-13
-6.1156e-13
-1.16568e-12
-1.35125e-13
8.36491e-13
0
-2.67749e-11
-2.73207e-11
1.89763e-11
-1.48054e-13
-1.95639e-11
6.41613e-13
-2.11928e-11
3.3342e-14
2.09401e-11
-2.95839e-13
-5.92027e-13
-5.15473e-13
1.86878e-11
-1.89973e-13
-3.96872e-11
-8.09928e-14
2.13946e-11
2.84438e-15
-1.85958e-11
-1.85006e-11
0
-3.47735e-14
1.72191e-13
-9.49666e-14
-1.15581e-13
2.26013e-11
-3.55176e-14
-2.26525e-11
1.30846e-13
-1.4812e-13
-5.48326e-12
2.07128e-11
2.62582e-11
-3.14531e-14
-2.16714e-13
1.77085e-14
3.69085e-13
-9.63062e-14
4.62847e-14
1.482e-13
2.96112e-13
-4.46416e-14
-2.40537e-11
7.42863e-12
2.39166e-11
-7.07206e-12
-2.60838e-13
2.12381e-11
1.2116e-13
-2.14675e-11
-1.03605e-12
-3.14785e-11
-2.99497e-11
6.00512e-13
-5.45583e-13
8.86844e-14
8.50774e-13
6.18234e-13
1.78413e-11
1.77604e-11
-5.91781e-13
-3.80257e-13
-1.90893e-14
7.07258e-15
-1.0709e-13
-1.62056e-13
-3.16789e-14
5.33994e-14
2.01707e-11
1.99722e-11
9.76169e-12
5.37069e-13
-9.69816e-12
-1.08248e-12
1.6217e-13
4.61846e-13
-4.13004e-13
1.56998e-13
-7.43766e-14
-1.47892e-13
2.95779e-13
8.33771e-14
-1.64441e-13
1.16444e-13
-1.8247e-11
-1.56368e-13
1.82673e-11
-1.65824e-13
-5.0612e-12
-4.87976e-12
3.40143e-12
-2.04614e-11
-2.82282e-12
2.14501e-11
-1.95676e-11
-2.12316e-13
1.88876e-11
3.57898e-14
3.20752e-13
-1.47868e-13
-1.95231e-11
-2.01371e-11
-4.75242e-13
1.01257e-12
6.06522e-13
2.21431e-11
1.948e-11
-4.39947e-11
-1.94765e-11
2.14432e-11
0
-6.11426e-13
1.85811e-14
7.5128e-13
4.50268e-14
-2.2761e-13
2.61846e-13
-3.12747e-14
-1.34476e-13
0
0
-5.52456e-14
-4.66502e-13
-2.08757e-11
7.05968e-13
2.10796e-11
-6.4568e-14
-3.42105e-13
1.13803e-13
0
8.58665e-12
-2.08545e-11
-1.02751e-11
2.05879e-11
2.59654e-11
1.87369e-11
-2.60591e-11
-1.96508e-11
-6.4293e-14
1.4804e-13
5.91907e-13
7.84949e-12
1.53261e-13
-7.40965e-12
-2.03285e-11
4.66772e-13
4.78695e-11
-5.35385e-13
-2.77418e-11
0
0
2.71149e-13
1.67085e-14
3.10854e-14
-2.3153e-13
-2.79468e-13
5.10439e-13
6.43738e-14
-5.1404e-13
0
-2.15962e-11
-2.21663e-11
-1.02057e-12
-4.26505e-13
5.12329e-13
4.96406e-13
-2.45439e-11
-2.58402e-13
2.45824e-11
0
1.47897e-13
2.72126e-11
4.14151e-13
-2.63342e-11
-1.64523e-13
-1.50271e-12
-1.67589e-13
4.39604e-13
-2.05036e-14
-1.47881e-13
-4.43663e-13
5.29256e-14
2.32329e-13
5.08608e-13
2.25996e-11
-5.21898e-13
-2.26333e-11
-2.78385e-11
-2.52366e-11
2.6616e-12
1.18312e-11
-7.43278e-12
-8.35788e-14
1.94027e-11
4.08264e-13
9.93738e-14
-5.87538e-13
1.15937e-13
-5.15421e-14
0
-2.24803e-11
-4.80918e-11
-9.41801e-14
2.53697e-11
4.06974e-13
-8.83538e-14
-2.71265e-13
-2.65425e-11
-1.43474e-14
2.6469e-11
-1.47913e-13
-2.71721e-11
-2.40133e-11
2.6916e-11
2.36854e-11
2.1828e-13
2.42957e-13
-6.3817e-13
2.57364e-13
5.91577e-13
-2.1008e-11
-2.0931e-11
1.1924e-13
-1.39011e-13
-1.14146e-13
-3.18064e-14
-2.47826e-11
3.03853e-14
2.48108e-11
0
1.47969e-13
-1.33588e-13
2.87526e-13
5.16652e-14
-6.69721e-13
-1.98209e-13
5.67355e-13
8.18525e-14
-2.8405e-13
-2.95913e-13
-2.15978e-11
-7.41431e-13
2.1145e-11
1.44463e-13
2.64437e-18
-2.40494e-13
3.55826e-13
1.54856e-13
-9.50576e-14
0
-2.95833e-13
4.41305e-14
-1.83114e-12
-2.6882e-13
2.24866e-12
-1.19647e-13
1.57301e-13
3.46454e-14
-3.26041e-14
1.47904e-13
1.98183e-11
6.9847e-14
-1.98088e-11
2.64339e-11
5.63996e-13
-2.90119e-12
-1.73607e-12
-2.35166e-11
2.60926e-11
2.49927e-11
0
-2.00854e-11
-2.30075e-13
2.03833e-11
5.30003e-13
8.92895e-14
-2.43654e-11
1.18178e-11
2.36785e-11
-1.19773e-11