/*--------------------------------*- C++ -*----------------------------------*\
  =========                 |
  \\      /  F ield         | OpenFOAM: The Open Source CFD Toolbox
   \\    /   O peration     | Website:  https://openfoam.org
    \\  /    A nd           | Version:  10
     \\/     M anipulation  |
\*---------------------------------------------------------------------------*/
FoamFile
{
    format      ascii;
    class       volScalarField;
    location    "1.1";
    object      gradTx;
}
// * * * * * * * * * * * * * * * * * * * * * * * * * * * * * * * * * * * * * //

dimensions      [0 -1 0 1 0 0 0];

internalField   nonuniform List<scalar> 
47104
(
1.3959e-13
-6.19299e-15
5.86824e-13
5.51545e-13
-1.94693e-13
1.55231e-13
2.57217e-13
5.25537e-14
-2.57264e-15
-1.39584e-13
9.32208e-15
-9.24761e-14
2.07262e-13
-4.89301e-13
1.36972e-14
2.81493e-11
4.96558e-13
-2.76327e-11
-2.10719e-11
-2.05794e-11
-1.39536e-13
9.21406e-14
5.27591e-12
1.93937e-14
-5.90722e-12
1.01506e-13
6.76872e-13
2.23745e-13
6.41274e-13
2.88441e-13
-1.91912e-11
-1.92392e-11
-6.4076e-13
1.90358e-13
-8.36319e-14
7.37172e-14
-5.54172e-13
-1.09501e-13
6.95895e-13
1.57889e-13
1.4855e-13
5.42096e-14
-9.20362e-14
-1.50007e-13
-1.59357e-14
-2.59367e-13
3.5623e-14
-1.49982e-13
1.7877e-13
0
0
8.54397e-13
1.64541e-13
-8.74391e-14
1.41155e-13
3.43714e-12
3.45653e-13
1.69215e-11
-3.74541e-13
-2.12419e-11
1.90261e-11
2.73963e-13
-1.89732e-11
5.19402e-13
-6.18152e-13
6.67922e-15
4.82651e-13
2.95382e-12
-2.36351e-13
-2.8161e-12
4.56183e-13
-2.05149e-13
-4.9845e-13
-2.78804e-11
-9.04351e-14
2.80688e-11
-1.40107e-13
-4.03168e-14
7.04264e-13
7.35228e-13
-1.39766e-13
1.73685e-13
5.56994e-13
-1.59196e-13
-5.49235e-13
1.04087e-13
2.15119e-11
-2.13355e-14
8.44011e-13
2.23506e-11
1.39609e-13
4.66196e-13
-1.21779e-13
-3.50837e-13
-2.11421e-11
1.43097e-13
2.03412e-11
-1.97047e-11
6.07653e-13
1.95408e-11
-1.49214e-13
-2.17131e-13
-2.76742e-12
7.62165e-14
2.82477e-12
-2.09818e-14
1.10171e-13
-2.01333e-13
1.07049e-13
4.47613e-13
-1.49336e-13
-3.52161e-11
-1.79454e-11
3.56913e-11
1.77727e-11
2.8496e-11
1.87152e-11
-5.15861e-11
-1.88618e-11
2.29964e-11
1.23924e-11
2.00511e-11
-1.55213e-11
1.16772e-12
-3.50106e-13
-4.52567e-11
8.68802e-11
-4.18228e-11
0
1.493e-13
1.49207e-13
-9.42094e-12
3.26666e-13
4.57472e-15
-5.46443e-11
5.48823e-11
-3.18502e-14
-3.53589e-11
-2.22435e-11
-1.34281e-12
-1.49167e-13
8.18892e-12
2.1768e-12
-2.34314e-12
5.50255e-13
-3.28659e-11
3.24984e-11
-6.41436e-13
-2.33322e-11
-2.29705e-11
1.93929e-11
2.00057e-11
5.59002e-13
6.62395e-13
1.06448e-11
-1.0419e-11
5.15387e-11
-5.08076e-11
-2.8418e-11
5.22073e-12
4.74559e-11
3.36499e-12
-3.6043e-11
-4.19599e-11
4.26624e-11
3.93749e-14
2.39436e-13
5.19284e-11
-4.37416e-12
4.3123e-11
0
-2.61892e-13
5.79902e-11
-5.72609e-11
5.33754e-13
9.52966e-14
-1.40128e-12
2.58775e-13
8.49209e-12
0
1.9715e-11
9.89218e-12
-1.99309e-11
-9.62355e-12
-6.3587e-13
-1.80821e-13
-6.54948e-13
4.76217e-13
-1.86709e-11
-1.95641e-11
-1.4921e-13
2.93587e-13
-4.52392e-13
4.39411e-13
-3.02223e-11
-2.02858e-11
3.03735e-11
2.01371e-11
-2.29462e-13
-2.98422e-13
1.49189e-13
2.5438e-11
1.911e-11
-2.55731e-11
-1.87372e-11
-6.63407e-14
-1.48531e-13
1.49571e-13
-1.61367e-13
0
1.50746e-11
-2.90507e-11
6.04535e-12
-4.88813e-11
4.91773e-11
-5.92946e-13
-7.14514e-13
5.19459e-13
1.77182e-13
-1.58194e-11
1.59541e-11
6.95081e-12
1.42252e-12
-2.55896e-12
-3.50792e-13
-2.22742e-13
3.88184e-12
-4.11284e-13
8.6349e-13
8.4985e-12
-1.4004e-11
5.11011e-11
8.95176e-10
-2.97686e-07
-3.94696e-09
1.02866e-09
8.36184e-09
6.33741e-08
-2.76505e-13
-7.59764e-12
-2.98048e-13
3.61196e-13
1.53994e-09
-2.98201e-07
1.68399e-07
-3.78898e-08
-4.83347e-07
1.08628e-07
-5.98028e-11
0
1.49037e-13
1.13052e-13
1.52845e-09
-3.03499e-07
1.78429e-07
-4.03698e-08
-5.05363e-07
1.11299e-07
5.46789e-13
-7.45111e-12
-9.09002e-12
1.82334e-11
1.58649e-09
-2.55602e-07
1.37239e-07
-3.05687e-08
-4.05944e-07
9.9694e-08
-1.1087e-13
0
-6.71209e-12
1.16882e-11
-1.233e-10
-2.67772e-08
-5.62545e-09
1.32636e-09
1.54529e-08
-3.24557e-09
5.8413e-11
-4.47381e-13
1.49293e-13
1.90947e-11
-1.82017e-11
-5.54544e-11
5.39059e-11
1.485e-11
-1.46706e-11
2.2312e-14
-9.96674e-13
1.55244e-11
-2.29744e-11
2.6812e-11
2.29249e-11
-2.72447e-11
4.53871e-13
-6.66448e-13
-4.1339e-14
2.95807e-13
1.29029e-13
0
-2.069e-11
-1.93719e-11
-2.24672e-13
-1.3446e-12
-2.83528e-11
-3.34354e-13
3.1693e-11
-4.61404e-15
-3.36042e-12
-1.48823e-13
1.48615e-13
4.46779e-14
-8.28941e-12
-4.09485e-11
-9.4595e-12
2.29765e-11
2.72799e-12
6.2879e-11
-8.21987e-13
-1.66425e-11
2.2145e-12
1.74845e-10
3.20446e-09
-6.30317e-07
-3.80306e-09
-2.72956e-11
2.03028e-08
1.6218e-06
-2.70425e-08
7.08606e-12
-3.52055e-11
9.3332e-09
0.000161489
-1.16454
-0.00940088
0.000600335
0.0253652
1.04376
9.98678e-06
7.33426e-13
-3.23754e-11
7.80524e-09
0.000167021
-1.84375
-0.0316379
0.00187575
0.0897662
1.31855
9.18957e-06
2.9444e-11
-9.52316e-12
7.66773e-09
0.000167896
-1.85395
-0.0329753
0.00196883
0.0921617
1.32345
9.15785e-06
4.24828e-11
-2.33307e-11
8.35047e-09
0.000166144
-1.82876
-0.0300654
0.00177058
0.0864007
1.30771
9.3142e-06
3.56483e-11
-2.54031e-11
9.51895e-09
0.000161966
0.265855
-0.0291135
-0.0314457
-0.0331096
-0.296124
7.08432e-06
6.64456e-12
1.48658e-13
4.93963e-13
9.22544e-09
5.40364e-08
3.01079e-09
-7.34885e-10
-1.25508e-08
-1.08431e-07
-2.0954e-10
6.83739e-12
-5.95366e-13
2.26421e-11
3.84023e-13
-2.15577e-12
2.02338e-13
-2.04152e-11
-2.4009e-13
2.43042e-11
2.84436e-13
-2.42626e-11
-7.43326e-13
-2.85815e-13
2.73805e-13
1.29548e-12
6.39291e-13
-3.64113e-13
-2.1962e-11
3.71411e-13
2.10666e-11
0
4.02139e-11
3.15081e-11
1.06231e-11
8.81941e-09
2.99853e-09
-5.08084e-10
-7.35056e-09
7.41863e-10
3.73699e-11
-3.85748e-12
4.49595e-11
-7.02601e-10
-4.21559e-07
0.0343638
0.000937684
0.000220044
-0.00150268
0.00171167
1.56934e-07
-4.59859e-11
-1.73303e-10
-6.54588e-07
-1.30179
0.00185852
1.68217e-10
-2.18015e-10
-1.0818e-06
-1.57635
0.00224008
2.2306e-10
-2.22531e-10
-1.05493e-06
-1.57926
0.00224539
2.64844e-10
-1.96626e-10
-1.12722e-06
-1.57157
0.00221929
1.75921e-10
1.17598e-11
8.64207e-08
-0.003368
-0.000104562
6.9063e-12
-7.42121e-12
3.93531e-14
9.01013e-08
3.31292e-05
2.28205e-06
-4.72779e-07
-1.12498e-05
4.21984e-06
7.71323e-10
-7.12383e-12
-1.4865e-13
5.90364e-13
5.07844e-14
-1.92686e-11
6.26153e-13
4.8396e-11
-1.44804e-12
-4.58973e-12
1.65356e-13
-2.54223e-11
2.23059e-12
-1.80882e-14
-2.19336e-12
1.06426e-12
5.96764e-13
-6.61609e-13
-1.22334e-12
-2.82789e-13
2.17376e-13
4.46039e-13
1.88647e-11
9.10556e-11
-1.78143e-11
9.49159e-09
4.08011e-09
-6.21816e-10
-9.89524e-09
1.04255e-09
5.65041e-12
-8.46517e-12
-4.41113e-13
-9.4633e-10
-6.60722e-07
0.043127
0.00118785
0.000172951
-0.00221055
0.00181418
2.12838e-07
2.79346e-11
-1.61719e-10
-5.72668e-07
-1.33854
0.00190685
1.36178e-10
-2.19239e-10
-1.13763e-06
-1.64581
0.00240122
2.1503e-10
-2.04837e-10
-1.10279e-06
-1.64989
0.00240931
2.03921e-10
-1.77632e-10
-1.11989e-06
-1.63423
0.00236725
1.94487e-10
-1.61825e-11
2.55993e-08
-0.0696262
-0.000112333
-8.38149e-12
-1.27762e-11
-1.29574e-11
9.55367e-08
3.90478e-05
3.11806e-06
-6.82699e-07
-1.78033e-05
1.95732e-06
7.81438e-10
1.54502e-11
1.48683e-13
8.53149e-14
2.26183e-11
1.32184e-12
-2.23171e-11
-5.8852e-13
-1.20428e-12
2.22916e-11
1.75634e-13
-2.26039e-11
-1.63671e-12
-6.75362e-13
5.73746e-13
5.25472e-13
6.09972e-13
-3.33664e-13
-1.16324e-12
-7.23232e-14
1.88224e-13
-1.48767e-13
5.94701e-12
-7.45107e-11
9.73111e-11
9.16791e-09
4.21649e-09
-6.46528e-10
-9.99923e-09
1.03238e-09
-2.79752e-13
2.86873e-11
4.71009e-11
-9.44781e-10
-6.69521e-07
0.0433148
0.0011676
0.00011977
-0.00229456
0.00182329
2.18465e-07
-1.73635e-11
-1.58667e-10
-5.47791e-07
-1.33959
0.00191137
1.53094e-10
-2.07807e-10
-1.10023e-06
-1.64868
0.00241016
1.82208e-10
-1.64491e-10
-1.05832e-06
-1.65323
0.00241864
2.04302e-10
-1.45494e-10
-1.17674e-06
-1.64258
0.00237523
1.48457e-10
8.3928e-12
5.10701e-08
-0.00189333
-0.000112889
4.19433e-11
-9.96222e-12
4.24413e-11
9.59545e-08
3.94646e-05
3.24059e-06
-5.80801e-07
-1.33405e-05
4.89182e-06
9.9031e-10
1.2936e-11
-2.61827e-11
-2.19336e-13
5.10812e-12
2.27158e-11
4.26476e-11
-2.2018e-11
-2.61383e-11
3.19354e-13
3.38313e-12
-1.48797e-13
-4.0043e-11
-9.69011e-14
3.99001e-11
1.4614e-12
2.38641e-11
-2.05552e-11
-2.38743e-11
1.98003e-11
5.6892e-13
5.9536e-13
2.975e-13
-2.24436e-12
3.1268e-11
9.10838e-09
4.22023e-09
-6.683e-10
-9.96685e-09
1.02374e-09
5.88017e-14
1.04102e-12
-4.41911e-12
-7.8002e-10
-6.56986e-07
0.0433481
0.00116504
0.000112574
-0.00230462
0.00182277
2.11829e-07
1.61954e-12
-1.59257e-10
-6.29121e-07
0.120542
0.00191214
1.7802e-10
-2.07103e-10
-1.10258e-06
-1.64676
0.00241103
2.0675e-10
-2.01455e-10
-1.05628e-06
-1.65348
0.00241952
1.99818e-10
-1.2466e-10
-1.17247e-06
-1.64318
0.00237602
1.58135e-10
1.60589e-11
5.11471e-08
-0.00188138
-0.000112956
-2.65053e-12
-1.63649e-11
-4.76554e-11
9.59911e-08
3.94829e-05
3.2418e-06
-6.31068e-07
-1.44131e-05
4.75571e-06
9.37871e-10
2.97536e-13
0
-2.09401e-11
-4.94568e-14
4.53454e-11
4.26377e-13
-2.35248e-11
-1.69088e-12
3.13525e-14
-1.95397e-14
0
2.38246e-12
-3.44436e-13
-3.16156e-12
-3.88378e-12
2.147e-13
4.39641e-12
-1.47266e-12
-1.33372e-13
8.58471e-13
1.48897e-13
-1.51766e-11
7.85399e-14
5.45064e-11
9.2738e-09
4.12538e-09
-6.29013e-10
-9.98803e-09
1.04122e-09
1.04467e-10
-6.54616e-12
-1.23799e-11
1.43199e-10
-6.38803e-07
0.0432482
0.00116166
0.000130172
-0.00226571
0.00181858
2.03812e-07
-1.5027e-11
-1.62478e-10
-6.93282e-07
0.250401
0.00191071
1.55116e-10
-2.19426e-10
-1.134e-06
-1.64567
0.00240542
2.12711e-10
-2.35778e-10
-1.08865e-06
-1.65214
0.00241357
2.36157e-10
-1.7077e-10
-1.19744e-06
-1.64204
0.00237128
1.67481e-10
2.65353e-12
5.11038e-08
-0.0018699
-0.000112803
-2.37221e-11
7.59021e-12
-2.83363e-13
9.56854e-08
3.90683e-05
3.12129e-06
-6.78619e-07
-1.77886e-05
1.94797e-06
8.75509e-10
-1.48823e-13
-1.48892e-13
-4.22749e-14
5.12427e-13
-4.03983e-12
-1.43993e-13
4.31461e-12
-1.6868e-12
2.31694e-13
-4.73197e-13
-2.9785e-13
-1.48928e-13
-5.66922e-14
-2.4514e-11
8.78486e-14
2.43156e-11
5.30542e-14
-1.73654e-13
2.72838e-11
-2.74293e-13
-2.72557e-11
2.94648e-11
3.67302e-11
1.93577e-11
4.89027e-09
1.43003e-09
-2.15248e-10
-3.58368e-09
7.34629e-10
4.03968e-11
1.48825e-12
3.64239e-11
-8.12373e-10
-6.17436e-07
0.0364543
0.000906909
0.00012293
-0.00169795
0.00180426
1.75916e-07
3.1259e-11
1.22422e-11
-3.73779e-07
-1.31602
0.00165976
4.79355e-11
-1.64047e-11
-4.36465e-07
-1.5999
0.00187683
2.33675e-11
1.62608e-11
-4.00032e-07
-1.60347
0.00188049
2.30778e-11
-3.09062e-11
-5.25779e-07
-1.5957
0.00186939
2.75392e-11
-2.28677e-11
4.34345e-08
-0.0030198
-9.80871e-05
1.62216e-12
-9.52757e-12
-7.1807e-13
8.49362e-08
2.76774e-05
1.93409e-06
-3.47929e-07
-8.05712e-06
3.72559e-06
8.81556e-10
4.466e-13
-1.4893e-13
2.42345e-12
2.74081e-11
-1.82988e-12
-2.73073e-11
-3.12035e-11
-2.75598e-11
3.14805e-11
2.78794e-11
1.48962e-13
-1.48929e-13
-1.83452e-13
2.04552e-11
-5.42901e-13
-1.84946e-12
7.50642e-13
-1.92893e-11
4.46801e-13
9.336e-13
-4.46866e-13
1.48808e-13
-6.10581e-13
-4.25668e-11
4.10204e-12
-7.5657e-12
1.17786e-12
1.55536e-11
-2.26817e-11
9.05645e-11
-1.13118e-11
-8.40552e-12
-5.69512e-11
-4.12728e-07
5.8569e-06
1.6649e-07
-3.09913e-08
-3.26422e-07
-2.54563e-05
6.98558e-08
-6.48793e-12
1.45742e-13
2.59326e-09
-0.000803926
-2.54174e-06
2.9141e-13
-7.11476e-12
2.68291e-09
-0.000829024
-2.6641e-06
2.45295e-11
1.45216e-13
2.64651e-09
-0.000811278
-2.67269e-06
1.4515e-13
3.2368e-11
2.66063e-09
-0.000828142
-2.63533e-06
-4.12387e-11
0
1.65192e-09
-0.000745774
-1.35873e-06
8.25887e-12
-8.18881e-12
4.06087e-12
2.25163e-09
-2.39651e-08
-1.82398e-09
3.44687e-10
6.47307e-09
3.72053e-08
1.00454e-11
-1.48875e-13
4.46835e-13
-5.73452e-13
2.43519e-11
-1.784e-11
-2.48227e-11
1.89559e-11
-1.0761e-13
-7.17143e-14
6.96632e-14
-1.48971e-13
-1.01262e-11
-2.84737e-11
-1.87792e-11
3.30687e-13
3.71751e-13
-1.06927e-12
-7.5207e-13
1.20035e-13
2.11333e-14
0
-4.7761e-11
-3.19295e-11
3.99082e-11
-3.9192e-11
3.89153e-11
-3.97543e-11
-4.10252e-11
4.14795e-11
2.11967e-13
-6.39929e-12
-1.47353e-13
-4.63619e-11
-4.88662e-11
-9.72162e-11
5.54051e-13
-1.10904e-10
-1.18096e-12
1.07837e-12
6.94607e-11
-3.96356e-11
9.16156e-12
6.19004e-11
-8.1938e-11
-9.43848e-13
0
5.79035e-13
3.00052e-13
-3.53337e-11
-3.6573e-13
0
-9.12077e-12
1.87885e-11
1.04256e-13
8.07476e-11
-1.43281e-11
1.30929e-11
4.19093e-12
-5.70718e-12
-3.64231e-13
-2.58854e-11
2.91941e-11
2.8161e-11
1.43545e-13
1.09671e-12
-4.30368e-11
1.48876e-13
-4.37038e-13
7.19427e-13
-2.99401e-11
2.95914e-11
-4.30332e-11
4.2801e-11
-4.74121e-11
4.96621e-11
1.81601e-11
-2.35323e-11
-3.08343e-11
5.12177e-12
3.09932e-11
1.84669e-11
1.58317e-14
-2.76614e-11
-1.94006e-11
2.78852e-11
1.99604e-11
-2.47178e-11
2.00277e-11
2.46982e-11
-4.38778e-11
-2.2297e-13
1.41702e-11
3.80766e-13
9.59473e-12
-1.46037e-13
2.97875e-13
7.1414e-12
-5.8321e-11
4.4359e-11
1.99273e-12
-1.95626e-12
-5.47913e-11
5.48694e-11
-1.7651e-12
4.08454e-13
-4.06237e-11
1.4729e-13
3.44441e-13
-2.60682e-13
-5.79757e-13
-5.8972e-13
7.48187e-13
1.26364e-12
7.86814e-11
-7.98636e-12
-4.61007e-11
-1.45264e-13
-6.21585e-11
8.44838e-11
4.35998e-12
-2.5419e-11
-4.09055e-11
-4.1408e-11
-4.16095e-14
-6.48896e-11
1.15623e-12
1.44554e-13
-4.67709e-11
6.32551e-11
-8.36474e-12
-3.46893e-12
-3.0804e-11
-5.46996e-11
3.14059e-11
-2.09936e-11
-3.67613e-11
1.62091e-12
-3.75939e-11
8.16583e-11
-8.22038e-11
1.47352e-13
1.72663e-11
9.72507e-12
1.49993e-12
1.45646e-11
-1.52349e-13
-5.07467e-11
-4.32145e-12
5.27362e-12
4.98263e-11
-3.18515e-11
2.97845e-13
3.02649e-13
7.08853e-13
3.78181e-13
-1.29207e-12
-7.02686e-13
2.4027e-11
-2.37404e-13
-2.41131e-11
8.93643e-13
-5.9558e-13
1.70599e-13
2.63884e-13
-2.18512e-13
-1.80438e-13
1.93242e-11
-2.04038e-11
-1.93605e-11
2.06591e-11
0
1.4877e-13
-2.38324e-14
5.95492e-13
4.22829e-11
-9.46269e-11
5.20399e-11
1.17087e-13
2.94211e-13
2.90412e-13
-7.43998e-13
-9.57286e-12
-6.91856e-13
-3.28293e-11
1.1446e-10
9.37933e-11
-5.88016e-13
-1.03105e-10
1.92185e-12
7.36133e-13
1.47274e-13
2.93374e-11
2.1528e-11
-3.49095e-11
-2.68951e-12
-4.96673e-11
-7.6586e-12
-9.58514e-13
4.59434e-13
2.00038e-11
-2.861e-11
-7.22565e-13
6.54879e-13
3.25141e-11
5.8731e-13
-1.30052e-12
5.81113e-12
-1.79362e-11
-3.40379e-11
5.74753e-11
-7.26288e-12
3.84536e-11
6.83271e-11
-1.32348e-10
1.13227e-13
1.35533e-11
0
-7.84729e-15
-9.06107e-13
3.80002e-11
2.49748e-11
-6.28142e-11
3.76246e-11
-3.80697e-11
-5.89782e-13
-4.40537e-11
-1.4891e-13
3.05255e-11
2.89059e-11
-5.91954e-11
-2.83824e-11
2.84269e-11
-1.40139e-13
3.127e-13
-1.04365e-12
-1.04252e-12
5.95574e-13
7.4447e-13
-2.14125e-13
2.61702e-13
-1.27068e-15
-5.37885e-14
-5.33465e-14
-1.11453e-11
-6.17912e-12
5.21263e-12
9.22306e-12
-4.00303e-11
3.95175e-11
-9.61852e-13
-4.3602e-13
1.43006e-14
2.44973e-13
2.94195e-13
5.72087e-11
-9.07686e-12
-1.47291e-12
-3.18127e-13
-2.97677e-11
1.17687e-10
-1.05836e-12
-9.70832e-13
1.29502e-12
7.25106e-11
-4.12511e-11
-1.28142e-11
-4.22777e-11
1.55798e-11
-6.67571e-11
1.45346e-13
-1.0314e-11
-2.61652e-11
-2.47275e-11
1.00507e-12
-1.72881e-11
6.93852e-12
-1.44571e-12
2.9943e-14
3.86948e-12
6.67902e-12
-5.7823e-13
0
-7.48264e-15
-1.17529e-10
-1.42962e-11
7.99053e-12
-1.47359e-13
-1.54079e-11
3.78446e-11
-1.91749e-11
-2.35706e-12
4.46455e-13
2.74239e-13
3.80665e-11
1.39793e-11
-5.35415e-11
-2.84263e-13
-1.82925e-13
2.44542e-12
2.08499e-13
3.86957e-12
1.4891e-13
1.42527e-13
2.58896e-15
1.16751e-13
-1.27113e-13
8.93547e-14
-4.36941e-14
1.60813e-13
-2.73725e-11
-2.7255e-11
0
2.19879e-13
-3.42015e-13
1.29343e-14
2.23223e-13
-8.89586e-14
6.64843e-14
4.80715e-14
5.46305e-14
1.48946e-13
-1.48766e-13
3.70555e-13
-2.91336e-13
1.01631e-12
-6.23094e-14
4.14117e-13
1.18038e-12
-8.82347e-13
9.26897e-14
-6.84538e-12
1.47355e-13
-1.63151e-11
-3.44798e-13
3.47651e-12
3.01249e-12
-1.16865e-10
-7.85846e-11
8.72856e-13
2.17686e-11
-5.89439e-12
4.77156e-11
9.82139e-12
1.47598e-12
5.80728e-13
-3.15645e-11
8.39933e-12
-4.40264e-11
1.75535e-11
-6.1741e-11
1.07159e-11
-4.34478e-13
5.27048e-11
-7.0303e-11
-5.65064e-11
4.48917e-12
-9.89463e-12
3.53773e-11
-6.41462e-11
-1.7486e-12
-6.83668e-12
3.99488e-11
5.81427e-11
-3.19229e-11
-5.46987e-11
6.63179e-12
-1.63712e-12
-9.10267e-12
1.0264e-11
-2.83588e-13
2.69038e-13
-5.43945e-14
5.17943e-11
4.20596e-13
-5.85112e-12
-1.13119e-11
-1.48925e-13
-2.58881e-14
4.34569e-13
-2.04374e-11
-2.20362e-11
2.10011e-11
2.12741e-11
-7.82822e-13
-2.77674e-11
-2.85986e-11
-2.97865e-13
1.72111e-13
2.77733e-13
-1.47819e-13
-1.50453e-13
-1.87784e-13
9.31085e-14
2.50326e-11
-1.46647e-13
-2.48786e-11
3.89885e-11
-1.0278e-11
4.13532e-11
6.07701e-13
3.0654e-13
-5.27532e-13
-1.29828e-13
7.313e-14
1.96816e-13
7.44283e-13
3.83427e-12
3.93303e-12
-9.08016e-13
4.73112e-13
-7.11129e-13
1.79486e-12
1.76619e-10
5.54686e-11
0
-5.89987e-13
-1.31198e-12
-6.27672e-11
1.28377e-10
5.03066e-12
0
-1.01658e-12
-1.24904e-11
-1.20671e-10
-3.68492e-13
7.55146e-12
4.35701e-13
1.22043e-12
-5.45248e-12
-1.5504e-12
4.35664e-13
0
-4.32267e-11
5.89502e-11
5.65266e-12
1.45769e-13
0
-2.41344e-13
7.20681e-11
-1.71665e-11
1.47494e-13
-7.59291e-12
-8.06261e-13
-6.52957e-12
-1.193e-11
3.95327e-11
-3.9763e-11
-5.113e-13
5.35002e-11
-6.37603e-11
2.51613e-11
2.51742e-11
8.55481e-14
-4.36855e-11
-2.37589e-13
1.8631e-11
-1.92863e-13
9.47858e-12
-1.0168e-13
-9.93012e-12
-2.97966e-13
0
-5.02902e-13
3.8012e-14
1.05613e-13
9.75385e-14
7.93326e-15
-4.85478e-12
-5.474e-15
6.13252e-13
-4.46957e-12
-2.90243e-11
-2.8088e-11
3.2762e-11
-3.35708e-11
6.12065e-11
-6.08804e-11
-2.70177e-13
-1.1782e-12
5.08073e-13
7.74141e-12
6.6366e-12
-2.26264e-13
5.25379e-13
8.7069e-13
-3.81687e-13
4.56196e-13
5.44378e-11
1.96428e-12
-3.89327e-11
8.40614e-12
-3.48159e-11
-8.80867e-11
3.01157e-11
7.29413e-14
2.62176e-12
7.68791e-12
-1.3664e-11
3.44076e-11
2.2112e-13
1.33442e-11
1.45061e-13
5.03436e-11
-6.29418e-11
4.57756e-11
4.24991e-11
7.28426e-13
6.60427e-13
4.6572e-11
4.64765e-11
-1.82069e-11
-1.91767e-12
-3.69167e-11
2.61154e-11
-3.31669e-12
-5.89946e-13
-1.23592e-11
-4.40831e-13
-7.11825e-13
-4.49603e-11
4.53571e-11
-9.76759e-13
2.00194e-12
-4.12698e-11
-1.62012e-11
1.07215e-11
-2.32407e-11
-1.85983e-11
2.3526e-11
1.81351e-11
-8.21525e-14
2.6388e-13
2.0652e-13
1.22413e-13
2.1166e-13
-4.47009e-13
0
6.5458e-13
2.03232e-13
-3.72193e-13
4.26646e-13
-1.88273e-11
1.88843e-11
1.85802e-11
-1.9526e-11
1.48972e-13
-5.49169e-11
-7.5915e-12
-8.10324e-11
-2.1677e-11
6.21714e-11
-5.04508e-11
5.14072e-11
5.76623e-13
-1.46313e-11
2.97673e-13
-1.47387e-13
3.87485e-13
-1.88558e-12
1.73739e-12
1.35472e-13
-7.62219e-11
-2.91588e-11
7.92137e-11
-1.93446e-13
5.89419e-13
6.68845e-12
-4.24383e-11
3.6833e-12
7.30538e-11
-1.72983e-11
-6.9445e-12
9.38995e-13
-1.02471e-10
-5.36248e-11
9.1139e-12
3.06731e-11
3.05823e-11
1.89409e-12
-1.49514e-11
6.51013e-12
-7.27116e-12
1.43511e-11
-5.07332e-11
-1.4937e-11
-1.46829e-11
1.9754e-11
3.98497e-11
4.027e-12
-1.59305e-11
-5.09941e-11
-1.45896e-11
3.82779e-11
2.35534e-11
-3.55261e-12
-1.66717e-11
-4.06937e-11
5.13626e-11
-1.08276e-11
-4.47754e-11
-3.67754e-11
1.48969e-13
-1.71947e-13
-2.80579e-11
-3.65251e-13
2.78678e-11
1.22482e-13
-6.7003e-14
6.50464e-14
6.53175e-14
1.48999e-13
0
2.12334e-11
-1.98195e-11
-2.11179e-11
3.40105e-13
-3.41677e-14
1.9579e-11
1.07943e-13
-1.41241e-14
1.48977e-13
1.4883e-12
-8.95012e-14
-5.95566e-13
5.42925e-13
-2.33459e-13
-1.55905e-13
-4.00579e-13
3.68113e-11
-3.75447e-11
5.95317e-13
6.18848e-12
-1.4018e-11
1.14407e-10
2.3194e-12
5.89797e-13
2.43114e-12
1.60288e-13
7.98727e-11
1.50104e-11
4.56689e-11
-8.71869e-12
2.20017e-13
3.95925e-11
4.60076e-11
-8.7169e-13
9.1077e-12
-5.12935e-11
7.30677e-11
1.23067e-11
6.07133e-12
-6.65052e-12
-1.31215e-12
3.28796e-12
1.65868e-11
-7.80656e-12
4.21523e-11
3.42317e-11
4.07195e-11
4.93783e-11
-4.88245e-11
-2.94798e-13
6.92746e-12
-1.06471e-11
2.05649e-11
-2.56417e-11
2.97739e-13
8.79863e-14
5.64933e-11
-5.69269e-11
-4.8408e-11
4.82761e-11
-1.3392e-13
0
-1.74783e-13
7.8915e-12
-7.44865e-13
1.08861e-13
1.1829e-12
2.75453e-11
-9.82204e-13
-2.23944e-11
2.78111e-11
-5.40307e-12
-2.77267e-11
1.49011e-13
2.0565e-11
2.01077e-11
-7.0478e-13
9.93827e-14
2.27397e-11
-5.79191e-15
-2.26078e-11
4.11769e-14
-2.59666e-13
0
3.18618e-11
-9.89824e-12
4.20113e-11
9.02826e-14
2.10233e-13
-8.40974e-13
6.49663e-13
0
-3.34113e-11
3.85585e-11
2.94799e-13
-8.08891e-11
1.11176e-10
5.81139e-13
1.25645e-10
8.77724e-11
-1.10495e-10
-6.30001e-13
-5.01462e-11
6.63179e-12
-2.92217e-11
-3.1602e-11
5.17783e-12
2.50037e-11
8.72116e-13
1.44649e-13
-2.31363e-13
1.15297e-12
1.6044e-11
1.63443e-11
2.89316e-13
-5.88195e-14
-1.09866e-11
1.41654e-11
2.45928e-11
8.87064e-12
-1.1006e-12
4.19189e-12
4.09215e-11
-6.68962e-12
-4.42325e-13
-1.98969e-12
-1.1511e-12
-4.50909e-11
4.85127e-11
8.78542e-12
5.45339e-11
-6.55553e-11
1.05374e-11
-6.24313e-11
1.8908e-11
-9.79113e-13
4.53856e-11
3.99754e-11
4.27509e-11
-1.49017e-13
-4.49934e-12
5.07762e-13
2.31644e-11
-2.89754e-13
-1.87495e-11
-1.11146e-13
-2.08582e-11
-8.27978e-15
2.10183e-11
5.0706e-12
6.69487e-15
-5.73868e-12
-4.80976e-14
5.724e-13
8.89715e-14
1.11339e-13
-1.42064e-13
-2.2579e-11
-2.25189e-11
-4.61971e-12
3.04434e-13
2.97993e-13
4.15187e-13
-8.74412e-14
3.74031e-11
-3.78648e-11
4.95862e-11
-5.04873e-11
-6.40722e-12
-2.55396e-11
2.31767e-11
1.19756e-12
-8.25078e-11
-2.35867e-12
-7.66224e-13
-8.0039e-11
3.86552e-13
1.42322e-11
8.11754e-12
-1.4574e-13
3.6894e-14
-2.25965e-12
-1.34352e-11
0
-2.33565e-11
-5.18454e-11
2.62926e-13
1.61702e-11
2.68362e-11
0
4.02216e-11
-2.86107e-11
-1.64912e-11
6.09377e-12
3.87721e-11
3.89737e-11
8.74727e-13
1.62664e-11
-3.04712e-11
1.47649e-13
-5.32228e-11
7.83882e-11
0
2.65835e-12
-3.12959e-12
-1.84885e-11
-4.07689e-11
3.96979e-11
-2.43615e-12
4.83336e-11
-4.59403e-11
1.75568e-12
4.28896e-13
6.36624e-11
0
-1.95965e-11
-6.19792e-14
1.95546e-11
-1.38391e-13
7.06823e-14
4.72083e-13
-1.78724e-13
-1.8394e-13
4.47521e-13
0
2.22152e-13
8.45181e-14
-2.46977e-13
1.05787e-13
4.35971e-14
-8.26363e-14
-9.88037e-14
-2.80889e-11
-2.80604e-11
1.05968e-11
-4.85754e-13
5.96371e-13
-3.29598e-13
2.43766e-13
-2.96224e-13
-9.70888e-13
3.91876e-13
-5.08488e-11
-2.149e-11
4.44584e-13
6.48537e-12
-1.01169e-10
5.79647e-12
2.39085e-13
2.08754e-12
-1.13601e-12
-1.10144e-10
-7.66822e-11
8.89018e-13
2.80411e-11
-3.68045e-11
7.1812e-11
-3.19199e-11
0
-2.42984e-11
2.29888e-12
-3.21169e-12
-1.60703e-12
-9.65967e-12
5.85524e-13
6.70592e-13
4.23266e-11
2.39212e-11
-6.14774e-12
1.1746e-12
5.0543e-11
-6.65899e-11
3.46444e-11
-6.31341e-12
-8.44774e-12
-4.42604e-13
4.01766e-11
-5.37359e-11
6.52205e-12
3.68629e-11
-1.23987e-11
-9.35763e-12
4.76071e-11
1.10562e-14
3.16784e-13
1.99027e-13
-8.76535e-13
7.53673e-13
-8.80898e-12
-1.20883e-11
-1.18904e-11
2.26872e-11
2.54424e-13
-2.26042e-11
-4.23844e-14
3.1889e-13
2.32128e-11
-2.42364e-13
-2.34389e-11
-2.98453e-13
2.05353e-11
3.27811e-13
-2.00823e-11
-1.16559e-14
-2.68572e-11
-6.65903e-14
2.64355e-11
3.80553e-13
0
1.49299e-13
7.02837e-13
-5.97851e-13
7.24897e-14
-2.05767e-13
1.29259e-13
-6.17718e-14
5.24621e-13
2.50578e-12
-7.31459e-12
6.10173e-12
-1.24942e-11
-2.87016e-11
3.86407e-13
-5.42918e-13
-3.74686e-13
-6.59985e-13
5.66831e-14
1.43058e-11
2.6337e-11
2.00118e-11
4.97557e-11
-1.24813e-10
1.88941e-11
2.96408e-13
6.368e-12
4.29734e-13
-1.13765e-11
8.01325e-12
-1.64352e-11
4.5762e-11
2.94755e-11
-2.0977e-12
-1.08224e-11
3.55373e-11
1.26009e-11
-9.86123e-13
2.54343e-12
1.61415e-11
1.03756e-12
-1.17573e-11
2.56475e-11
-2.90319e-13
-2.96899e-12
-8.92995e-13
3.49316e-11
3.54106e-11
-2.31395e-13
-2.03027e-11
6.0123e-12
-1.78401e-13
-3.96076e-11
4.10185e-11
2.50237e-14
-3.12089e-11
-1.49187e-13
-2.11678e-11
3.72704e-14
2.09751e-11
1.47801e-13
4.69761e-14
1.35666e-13
5.37528e-13
1.27568e-14
-7.46162e-13
-1.66753e-11
-8.47559e-12
3.61177e-11
2.75611e-11
2.96855e-14
5.47356e-13
2.37694e-11
-4.73923e-13
-2.40379e-11
1.48867e-13
-1.5632e-11
7.25633e-11
-7.37047e-11
7.26052e-11
-5.35292e-11
3.78456e-11
-3.80073e-11
6.15973e-13
4.8216e-14
-3.22991e-11
-1.48607e-13
-2.62375e-13
0
-2.63781e-11
3.0741e-11
2.5763e-11
2.26612e-11
-7.13796e-11
-5.82177e-11
3.35778e-11
-1.48355e-13
-2.41077e-11
-6.94011e-12
4.51929e-11
-1.01815e-10
5.88305e-11
-1.47603e-11
2.85681e-12
3.70202e-13
8.00965e-12
-8.89854e-13
1.25765e-11
1.15946e-10
1.3552e-11
-4.5038e-13
4.14005e-11
-2.73344e-12
-4.93881e-11
5.71124e-11
3.41053e-11
-2.66957e-12
-5.00511e-11
6.50472e-11
-1.46278e-11
2.90125e-13
-8.3353e-13
3.03387e-13
-9.00063e-11
-1.76039e-11
1.48288e-13
-4.45072e-13
-2.87842e-13
-2.10969e-11
-2.6409e-11
-5.29385e-12
5.1128e-11
-4.483e-11
5.83253e-11
-5.18891e-11
8.752e-12
-1.08476e-11
-1.59286e-12
-5.0997e-13
-1.70753e-12
9.5015e-11
8.60558e-13
-2.32889e-12
2.16982e-12
9.25273e-12
2.08036e-12
-4.16794e-12
2.48339e-13
-5.23021e-11
5.29097e-11
-1.61566e-12
1.38403e-12
-5.09868e-11
5.0671e-11
1.04055e-13
-2.53101e-12
2.97691e-13
2.46916e-13
-3.6688e-14
1.95324e-11
-4.81129e-13
4.75645e-13
4.54116e-13
-1.98414e-11
-3.41461e-13
0
-1.48471e-13
-2.85161e-12
-1.16373e-13
-4.26975e-13
-2.56978e-11
3.31062e-12
5.17728e-11
2.00095e-11
-2.73845e-12
3.26608e-12
2.463e-11
-2.85038e-11
-2.55109e-11
2.82481e-11
6.91025e-13
-3.55978e-11
-1.58201e-11
3.64055e-11
-2.7358e-11
1.03849e-11
1.4817e-13
6.83189e-12
-1.22254e-11
-4.69897e-11
4.69025e-11
-1.02964e-11
1.03815e-11
7.49692e-13
1.17046e-11
-1.48147e-13
0
9.51552e-12
1.11297e-13
-6.3284e-12
7.08986e-12
4.05073e-11
-4.0609e-11
-1.89982e-13
-1.66675e-11
-2.27913e-11
-1.4798e-13
-2.95151e-13
-6.05572e-11
2.45944e-11
1.19581e-13
-8.93501e-12
1.44146e-13
-5.46749e-11
1.82219e-11
-2.95927e-13
2.54528e-11
4.02528e-11
-1.46942e-11
2.77376e-11
-2.53142e-11
-1.33418e-11
-7.58229e-14
5.20944e-11
-7.85655e-12
-2.29347e-11
2.61993e-11
-1.63891e-11
-3.47941e-11
-3.42757e-12
8.33054e-11
-1.50773e-11
-9.03341e-11
5.13536e-11
1.48594e-11
-1.48007e-13
-3.79479e-11
-3.20009e-11
-4.05817e-11
4.07071e-11
-4.58644e-13
-3.92899e-11
3.78626e-11
-4.10372e-13
-4.01267e-11
3.70587e-12
1.48374e-13
1.51048e-14
4.82955e-11
-8.48176e-13
-2.55693e-11
-8.34006e-12
-2.94624e-12
-2.86971e-11
2.77537e-11
2.93803e-11
2.46419e-11
2.20702e-11
-1.13545e-13
2.54947e-11
-4.42226e-14
-2.24085e-11
-1.03593e-12
-2.63755e-11
2.72591e-12
2.77626e-11
-7.41011e-13
-1.16948e-12
-3.00233e-12
1.78083e-13
2.63688e-12
-2.23355e-14
9.77254e-14
4.49147e-13
7.24754e-13
-1.48196e-13
-1.4812e-13
1.14651e-13
-1.559e-14
8.16582e-14
5.765e-14
-4.44983e-14
-3.5022e-14
-5.95788e-14
-3.46819e-14
-1.48112e-13
-5.18023e-12
-5.16151e-12
2.8873e-13
-2.00825e-13
2.61742e-11
-3.95118e-14
-4.53296e-11
1.6283e-14
1.93515e-11
0
4.14184e-11
2.07802e-11
-2.35215e-11
-2.81466e-11
2.59816e-12
2.83557e-11
1.01713e-13
2.02393e-13
-9.19404e-14
-2.95839e-13
-2.85441e-11
1.002e-13
2.85947e-11
4.91814e-13
-2.64938e-13
-6.12397e-13
-3.24986e-13
-2.62446e-11
5.25636e-13
2.60305e-11
4.4369e-13
-2.44212e-11
-6.12579e-13
2.5005e-11
-3.63609e-14
-1.81589e-11
3.2816e-14
1.80359e-11
-8.68004e-14
0
-1.47925e-13
-3.14196e-11
1.6484e-14
3.03957e-11
-3.24121e-14
1.91019e-11
1.24511e-13
-1.86707e-11
-2.35407e-13
0
-2.01299e-11
-2.05612e-11
9.81306e-14
7.78362e-14
-3.85758e-14
-2.9383e-11
1.75059e-14
2.93517e-11
2.1324e-13
1.48019e-13
0
2.48914e-14
2.22062e-11
-3.73821e-13
-2.21807e-11
3.13051e-11
2.52995e-13
-3.11094e-11
1.9935e-13
1.48122e-13
0
-4.53928e-13
-2.02171e-14
3.32292e-13
-3.92087e-14
6.6583e-13
4.92232e-14
-5.46681e-13
1.36879e-14
0
1.48052e-13
1.36342e-11
3.2415e-13
-1.36683e-11
2.04837e-13
-8.5193e-14
-2.06817e-11
-5.32933e-13
2.03216e-11
1.48051e-13
0
-6.30832e-13
1.91262e-11
5.61225e-13
-1.90609e-11
5.14997e-12
-1.89216e-13
-5.28907e-12
-3.71787e-14
1.48001e-13
1.99719e-11
1.98776e-11
1.47607e-13
2.27877e-13
-2.97958e-13
-1.35845e-13
-1.41962e-11
-1.88747e-11
1.43097e-11
1.89363e-11
1.9522e-11
1.96668e-11
-2.50413e-11
-1.40298e-11
2.16333e-11
1.08676e-11
-2.19055e-11
3.21564e-12
2.55628e-11
1.47898e-13
-2.07026e-11
-2.16659e-11
1.98109e-11
4.73591e-11
3.49208e-11
-2.6805e-11
-3.54952e-11
5.84674e-13
1.91837e-12
7.3943e-13
1.47875e-13
-3.1467e-14
-1.82566e-13
1.68116e-13
5.88457e-13
-5.78359e-16
5.09522e-13
-2.85263e-13
-8.72424e-13
-1.47888e-13
-2.6177e-11
-1.96902e-11
2.61262e-11
1.94769e-11
-2.64797e-11
-2.68437e-11
2.67296e-11
6.43763e-12
-1.37654e-13
2.02629e-11
1.47939e-13
1.15989e-13
-1.08228e-14
4.25037e-13
-1.2043e-13
-6.37056e-13
-1.26213e-13
1.53061e-13
2.08352e-11
2.05649e-11
-2.57516e-11
-2.4671e-11
2.57074e-11
5.22299e-11
8.0507e-13
-2.79892e-11
-6.38023e-13
1.86453e-13
-4.90309e-14
0
1.48043e-13
-8.28235e-13
-2.95295e-13
1.09428e-12
-2.21329e-11
-3.53039e-13
-3.09939e-12
3.17909e-11
2.492e-11
-3.10907e-11
-2.07158e-11
-2.07837e-11
5.17132e-13
-4.35978e-13
-4.70612e-13
5.68506e-13
-3.45677e-13
-2.2272e-13
3.10506e-13
-1.47972e-13
-7.39716e-13
2.65494e-11
2.73788e-11
-4.87561e-13
-2.37647e-11
2.08163e-13
2.30672e-11
2.02329e-11
3.46006e-14
-2.01206e-11
-2.07073e-12
1.99277e-11
4.06375e-12
-1.89442e-11
-5.64657e-13
1.89004e-11
4.46007e-11
1.51003e-13
-2.58417e-11
-1.47914e-13
8.87305e-13
1.17557e-12
1.44022e-13
-2.79018e-11
-2.95217e-11
2.77761e-11
2.9763e-11
-3.80847e-14
4.56751e-13
5.9157e-13
2.48426e-11
2.45133e-11
-3.86245e-13
-2.45107e-11
1.64839e-13
2.47527e-11
-2.17294e-11
1.9302e-11
2.4965e-11
-1.56758e-11
2.49904e-11
1.18577e-13
-2.49705e-11
2.51322e-14
1.06641e-13
-1.12642e-13
-2.33262e-13
1.73259e-13
1.90465e-11
1.89294e-11
0
2.04973e-11
-1.70723e-14
-2.14226e-11
1.47031e-13
-8.4705e-14
-3.03287e-14
2.57119e-11
-2.53487e-13
-2.49943e-11
-1.47907e-13
2.04518e-13
-9.37749e-14
-2.62591e-11
-9.84863e-13
2.62472e-11
3.70341e-13
-4.1586e-13
5.91514e-13
2.95836e-13
-1.47939e-13
-1.80239e-13
-5.65008e-14
2.81701e-13
-2.42233e-14
-8.4291e-14
1.16426e-15
-2.02947e-11
-2.96137e-13
2.02688e-11
2.95928e-13
-5.50371e-14
-3.86369e-13
-7.23966e-14
1.59585e-13
2.83285e-12
-6.90683e-15
-2.80041e-12
2.14659e-13
0
-8.94951e-12
-9.66574e-12
-6.3015e-13
1.00919e-12
-2.94335e-13
-9.08034e-13
2.11293e-13
-6.16031e-14
-8.47421e-14
-3.6957e-13
-7.38528e-14
-1.81912e-14
-3.02937e-13
2.1654e-11
-4.95383e-12
-2.21569e-11
5.01265e-12
4.64468e-13
2.36566e-13
2.2176e-13
-5.17546e-13
-9.48551e-14
-1.88701e-11
-1.89119e-14
-5.77492e-12
-2.05004e-11
2.49645e-11
2.06711e-11
1.97741e-13
2.21788e-13
-7.38254e-14