/*--------------------------------*- C++ -*----------------------------------*\
  =========                 |
  \\      /  F ield         | OpenFOAM: The Open Source CFD Toolbox
   \\    /   O peration     | Website:  https://openfoam.org
    \\  /    A nd           | Version:  10
     \\/     M anipulation  |
\*---------------------------------------------------------------------------*/
FoamFile
{
    format      ascii;
    class       volScalarField;
    location    "1.1";
    object      gradTz;
}
// * * * * * * * * * * * * * * * * * * * * * * * * * * * * * * * * * * * * * //

dimensions      [0 -1 0 1 0 0 0];

internalField   nonuniform List<scalar> 
46825
(
1.49086e-13
0
-1.48932e-13
3.27176e-11
4.45697e-13
-1.88679e-11
1.48719e-12
3.18726e-11
2.98155e-13
2.6987e-11
5.96213e-13
-1.4893e-13
1.48581e-13
-3.36012e-11
2.43615e-11
1.47648e-13
-4.44079e-13
3.43232e-11
-2.97867e-13
-7.45312e-13
-2.82919e-11
0
-6.04154e-11
-3.55594e-11
-2.90893e-13
-5.81788e-13
-1.46336e-13
-2.33394e-11
-7.42861e-13
-5.95649e-13
-4.46072e-13
0
-1.14138e-11
4.16068e-11
8.40746e-12
9.11995e-12
-5.7587e-13
-5.03376e-11
0
-5.94772e-13
2.73333e-11
4.42931e-13
-2.21093e-11
-2.8502e-13
9.84812e-12
-9.7074e-12
-1.42508e-13
-4.74179e-11
1.62405e-12
-1.18838e-12
-2.70394e-11
1.4767e-13
-4.97581e-11
0
9.00522e-12
-4.10861e-11
2.59418e-11
0
1.47664e-13
2.97125e-13
-1.04116e-12
1.03655e-12
-1.33254e-11
-3.54382e-11
1.26873e-11
-1.85318e-12
1.23886e-11
9.22506e-12
4.44217e-13
-8.92385e-13
-4.46889e-13
0
-2.95663e-13
-1.85976e-11
-1.92075e-11
-2.91023e-13
-2.92875e-13
3.74016e-11
-4.4297e-11
2.97917e-13
-6.85861e-12
-1.48984e-13
2.3189e-11
-1.48082e-13
-1.47687e-12
2.67314e-11
4.44253e-13
-2.94329e-11
0
5.96405e-13
0
2.98193e-13
1.48959e-13
7.43695e-13
-1.04007e-12
1.48584e-13
5.94981e-13
1.19174e-12
0
-2.89304e-11
3.78961e-11
-1.49346e-13
3.43473e-11
3.3578e-11
-2.98375e-13
-1.89467e-11
4.37261e-11
5.82422e-12
-1.49359e-13
0
-3.61345e-11
1.12218e-13
3.28815e-14
2.62085e-12
9.90219e-12
1.69573e-12
1.44593e-14
4.31579e-11
-3.74075e-13
-7.46658e-13
-2.34383e-11
8.50402e-14
5.06551e-12
-3.61812e-11
2.95805e-13
-5.11529e-11
2.95934e-13
1.84187e-11
-4.92277e-13
-2.98595e-13
3.50605e-11
1.08477e-11
0
7.96359e-11
2.90624e-13
1.16147e-12
-3.31968e-11
-4.33079e-11
-8.31804e-12
3.47628e-11
2.80417e-11
1.77072e-11
7.03948e-11
-8.71846e-13
-2.87475e-13
-4.3063e-12
8.65041e-13
-7.03723e-11
-4.49263e-13
-4.4896e-11
-2.72986e-11
2.06028e-11
-2.45418e-11
5.63331e-11
-1.83737e-11
-4.07078e-11
0
0
7.48602e-13
-1.49166e-13
-8.95413e-13
-5.66247e-11
-1.27291e-11
-3.46679e-11
-5.76776e-13
-2.30407e-12
-1.64847e-11
5.08068e-11
1.03071e-11
-4.47681e-13
-4.4803e-13
4.26835e-12
-1.87256e-11
-1.70999e-11
8.79877e-13
-3.89786e-11
-5.60945e-11
3.84735e-11
1.91497e-11
2.52381e-11
1.4936e-13
-1.12246e-13
8.92797e-12
9.58409e-12
5.13378e-13
-9.63967e-12
-1.02166e-11
-1.27298e-12
1.06637e-11
8.96163e-13
0
-4.48054e-13
1.49332e-13
8.9537e-13
1.49176e-13
3.07309e-11
-1.49238e-13
4.48038e-13
0
1.49229e-13
2.98326e-13
-3.08018e-11
9.61393e-13
-7.8731e-14
-2.87036e-13
2.529e-11
1.90369e-11
-2.57317e-11
1.08948e-12
-2.62576e-11
-5.21475e-11
0
0
4.24684e-11
9.29234e-12
-4.49882e-12
-7.36484e-11
-7.19815e-11
0
-2.82036e-13
2.35694e-13
-2.98736e-13
-2.00096e-10
9.20255e-11
1.42771e-10
1.91191e-10
1.28088e-10
1.47643e-10
-6.00634e-13
-3.15691e-11
3.87077e-12
-1.34552e-11
1.6225e-10
6.03754e-06
1.82682e-06
1.87423e-06
1.53518e-06
1.05065e-06
4.81885e-12
1.43588e-13
-9.77858e-14
-2.997e-13
6.36137e-11
1.82321e-06
-2.34146e-05
-2.39879e-05
-2.0938e-05
1.37082e-06
3.66059e-11
-2.69499e-11
-2.76033e-11
5.36759e-11
1.55467e-10
1.88009e-06
-2.39742e-05
-2.45942e-05
-2.13557e-05
1.38597e-06
6.60199e-11
2.78064e-11
-5.80508e-14
-1.28715e-11
1.25368e-10
2.02509e-06
-2.08541e-05
-2.13473e-05
-1.86134e-05
1.30584e-06
3.32105e-12
7.88497e-14
2.64298e-13
8.9595e-13
1.40784e-10
3.98212e-07
1.36453e-06
1.38499e-06
1.30591e-06
-6.28531e-09
5.11129e-11
-1.60233e-12
6.67752e-12
2.98392e-13
5.13609e-11
3.67519e-11
-7.74393e-11
-1.27185e-11
5.97798e-11
5.23183e-11
2.99101e-13
-3.92603e-13
-4.47513e-13
-2.91832e-11
-1.16188e-13
-1.06487e-13
7.05446e-13
2.0416e-13
-3.96158e-13
2.39952e-11
1.99587e-13
2.93898e-11
-3.79461e-11
-7.98259e-14
-3.51721e-12
3.76768e-11
3.98677e-11
1.17152e-12
-1.1027e-11
1.38735e-13
2.9987e-11
1.48854e-13
3.61211e-11
2.97015e-13
-4.90234e-13
-2.59887e-10
-3.98318e-10
-3.28799e-10
-2.413e-10
1.79575e-11
5.55074e-11
-2.13993e-13
-1.28562e-13
-2.64906e-12
3.17479e-08
-3.55284e-05
-3.51371e-05
-3.45265e-05
-3.50806e-05
-3.81528e-05
-1.40476e-09
-2.75064e-11
-3.41131e-11
-2.78698e-10
-3.88805e-05
-224.945
-292.834
-293.463
-291.944
-1.81746
8.24952e-08
-6.20867e-11
8.41667e-13
-3.59808e-10
-3.50205e-05
-292.829
-404.014
-405.492
-401.756
-3.31019
-2.48262e-08
4.40849e-11
-2.77286e-11
-3.6546e-10
-3.48129e-05
-293.44
-405.477
-407.044
-403.139
-3.32399
-3.38137e-09
3.92957e-11
7.45443e-13
-3.54855e-10
-3.50621e-05
-290.937
-401.612
-403.128
-399.25
-3.29549
-6.77862e-08
3.00785e-14
-3.93114e-13
-8.06232e-11
-3.80739e-05
-0.572328
-3.30232
-3.32359
-3.29539
-0.514933
2.67294e-07
-2.59713e-11
-2.54267e-11
2.96711e-13
-1.46809e-09
1.19406e-07
-1.75949e-08
-4.7097e-09
-6.21777e-08
2.68997e-07
3.62859e-11
-3.07269e-11
-1.33927e-12
5.59757e-13
-2.77172e-11
5.89499e-13
7.78217e-12
-2.95884e-11
1.06936e-12
3.75805e-12
-1.73348e-13
1.3395e-11
0
4.71477e-12
3.07246e-11
1.71576e-12
2.11044e-12
-2.31248e-11
-1.70946e-11
-1.57862e-14
-1.1437e-12
2.97342e-13
8.50016e-11
2.96347e-13
6.13439e-11
8.57277e-09
1.87812e-08
1.8786e-08
1.7917e-08
-7.18591e-10
-5.57074e-11
5.86904e-14
1.79818e-13
6.80236e-12
-4.63695e-09
-0.00445985
0.0299023
0.0302689
0.0294581
3.51606e-05
8.03324e-10
3.18239e-11
-2.58969e-12
7.88066e-09
0.0146329
1.42076e-05
-2.97437e-11
2.61902e-12
1.87312e-08
0.0299173
3.87536e-05
6.64084e-11
2.9702e-11
1.86758e-08
0.0301644
3.96219e-05
5.29876e-12
-2.58704e-11
1.79214e-08
0.0294548
3.67204e-05
-2.40447e-11
-3.30047e-14
-3.30262e-10
4.01011e-05
-7.64127e-07
-1.28868e-11
-4.69896e-11
-5.92316e-13
7.10431e-10
2.49257e-05
3.91415e-05
3.9733e-05
3.66717e-05
-7.61323e-07
-3.3372e-11
2.68241e-13
4.4586e-13
4.47211e-11
-3.4028e-11
1.16524e-12
2.93443e-12
3.11515e-12
1.71658e-12
-5.97585e-11
-2.57951e-11
2.66084e-11
-2.54217e-11
-2.64695e-11
1.01776e-11
-3.75927e-11
-3.7725e-11
3.35111e-13
-6.54781e-11
-2.63109e-13
-5.55934e-11
0
3.90323e-11
-2.97272e-13
-5.50236e-11
1.69381e-09
4.42964e-09
4.37338e-09
4.06398e-09
-1.85549e-10
5.95394e-11
-6.03794e-14
-4.39801e-12
1.3619e-12
-4.59667e-09
0.000722356
0.000977109
0.000979189
0.000975426
-1.94689e-06
-2.16893e-10
2.61211e-11
3.43576e-11
1.53271e-09
0.000445261
5.74798e-06
2.82874e-11
6.69602e-13
4.21289e-09
0.000978357
2.88799e-06
7.63125e-13
2.8986e-11
4.32666e-09
0.00097915
2.67071e-06
-3.77026e-11
-7.73667e-13
3.96079e-09
0.000975771
2.23698e-06
1.01167e-12
-4.43839e-13
-1.05294e-11
7.55238e-07
-4.98197e-08
2.20141e-12
2.56772e-11
-2.97733e-13
8.6042e-12
1.46484e-06
2.53258e-06
2.6713e-06
2.23663e-06
-6.17663e-08
-5.31725e-11
2.9905e-11
8.92018e-13
-4.5239e-13
6.34578e-11
3.32728e-13
-4.33263e-11
-1.25211e-13
1.85463e-13
3.19247e-12
8.49239e-14
-1.3234e-11
1.48749e-13
6.77098e-11
-3.1756e-11
-1.53854e-13
5.59042e-13
-7.47377e-14
-5.75208e-13
-3.15676e-11
2.9953e-11
-1.48796e-13
-3.33892e-11
5.12183e-11
4.05476e-12
5.22139e-10
1.15447e-09
1.16718e-09
1.16143e-09
-1.88372e-11
-5.78805e-11
3.70087e-13
-3.36546e-11
3.49967e-12
-1.03483e-08
0.000177037
0.000331627
0.000221496
0.000330889
-3.69282e-06
3.85539e-11
4.17856e-13
9.26365e-13
4.1754e-10
0.000174541
3.68387e-07
3.21586e-11
-2.63939e-11
1.10224e-09
0.000332062
4.64982e-07
-3.73937e-11
2.34656e-13
1.10175e-09
0.000331534
3.36907e-07
-3.06194e-11
2.85614e-11
1.11838e-09
0.000330674
-1.25504e-07
2.50088e-11
1.9296e-13
-7.2731e-11
-1.57471e-07
1.71541e-08
1.32028e-11
4.68253e-11
5.96655e-13
1.22817e-11
2.16116e-07
2.88548e-07
3.7369e-07
3.03997e-07
-1.08107e-08
5.42041e-11
-4.18469e-13
1.48761e-13
-4.50971e-11
2.97685e-11
1.54529e-13
-4.23453e-11
-3.37103e-13
-4.7272e-13
3.51359e-11
2.61637e-11
-2.73771e-11
6.07202e-11
2.68931e-11
-4.13324e-11
3.36992e-11
2.93314e-11
4.2051e-14
7.14425e-11
6.54063e-13
2.56098e-11
-5.95465e-13
-3.84128e-11
-5.66183e-11
1.67241e-12
7.76095e-11
2.84262e-10
2.29142e-10
2.3683e-10
-4.0746e-11
-1.49282e-12
-7.95514e-13
-2.84941e-11
-2.67262e-13
5.83062e-09
8.87401e-05
0.00033309
0.00011275
0.000222496
-5.98567e-06
2.70245e-11
4.25161e-13
-6.95183e-12
1.08626e-10
2.79708e-06
-4.04106e-08
-3.88104e-13
-2.86862e-13
3.33114e-10
0.000332796
-1.19063e-07
-2.37329e-13
2.57012e-11
3.89947e-10
0.000112755
-1.32353e-07
-2.72085e-11
4.53015e-13
2.26272e-10
0.000332042
-2.87381e-06
-4.49696e-11
1.20561e-13
-4.27894e-11
-4.62263e-07
-1.05133e-07
-1.02853e-12
5.16109e-14
-5.97294e-13
1.73776e-11
-1.20332e-07
4.76625e-08
-9.55681e-08
-3.84011e-08
-3.82536e-09
-3.01287e-13
1.73893e-13
2.97672e-13
1.73959e-13
-9.92283e-12
-2.3297e-13
3.71497e-11
3.08561e-13
-5.03376e-13
-6.80271e-12
2.81915e-11
-1.48862e-13
-4.46642e-13
-4.14133e-11
4.91642e-14
-1.40343e-13
2.65483e-11
-6.74688e-13
4.84173e-14
3.1861e-11
-3.01334e-11
1.48922e-13
-4.38883e-13
5.66327e-12
-1.70518e-12
-5.76064e-10
-1.89389e-09
-1.86391e-09
-1.68886e-09
6.23657e-11
2.09035e-12
2.52313e-13
3.36868e-11
-5.23301e-11
3.86872e-09
-0.000178322
-9.95898e-05
-0.00020965
9.65727e-06
-5.8275e-06
-2.03792e-11
-8.45235e-13
2.45887e-11
-5.45749e-10
-0.000180943
-1.35931e-06
-4.44356e-13
2.63729e-11
-1.89507e-09
-9.96046e-05
-2.47271e-06
-1.19807e-12
-8.19436e-13
-2.01394e-09
-0.000100032
-2.53063e-06
1.87689e-13
-3.17575e-11
-1.67052e-09
-9.89367e-05
-1.10479e-07
-2.57371e-13
1.47033e-13
6.55922e-12
-2.05881e-06
-3.20313e-07
-7.69974e-14
-4.92146e-14
-5.07736e-11
-8.28021e-11
-1.28047e-06
-2.53567e-06
-2.52453e-06
-2.17436e-06
4.0096e-08
-6.12775e-13
-6.56426e-13
-1.48893e-13
2.87327e-11
3.34484e-12
-3.75441e-11
4.0369e-11
8.88254e-13
4.49746e-13
-4.32987e-11
-5.5834e-13
1.48915e-13
-8.1907e-12
-3.92951e-11
-8.22247e-14
-3.35509e-11
-2.92868e-11
-1.09577e-13
3.20444e-12
-5.44441e-13
-2.7603e-13
5.95841e-13
3.43774e-11
3.27886e-12
-1.16174e-12
-1.53687e-09
-3.20962e-09
-3.00627e-09
-3.3864e-09
1.74786e-10
-1.4929e-12
1.08772e-12
2.86964e-11
5.18435e-11
4.54732e-09
-0.00951988
-0.0225136
-0.0228738
-0.0223716
-3.93016e-05
2.44042e-10
3.97773e-13
-2.63181e-11
-1.56173e-09
-0.00969308
-1.83335e-05
2.60512e-11
-6.60537e-14
-3.15206e-09
-0.0225135
-3.1067e-05
-1.68528e-13
-2.652e-11
-3.00536e-09
-0.0228732
-3.15252e-05
2.67658e-11
-2.81798e-11
-3.32448e-09
-0.0221526
-2.84903e-05
4.46743e-11
3.85725e-13
8.20446e-11
-2.97307e-05
2.73552e-07
2.29633e-13
-2.8602e-14
5.10705e-11
2.92786e-10
-1.83519e-05
-3.11272e-05
-3.15373e-05
-2.88226e-05
2.82588e-07
-9.03484e-13
9.20532e-13
0
2.60776e-13
-2.60931e-11
4.97277e-13
3.65101e-13
-1.00856e-11
-1.46623e-13
-5.91964e-13
-2.8279e-11
7.44784e-13
-2.97885e-13
6.55865e-13
-2.85292e-14
-4.50352e-13
1.46914e-11
2.82489e-11
1.29969e-13
2.96506e-11
-2.69595e-11
-1.63864e-12
-9.34873e-13
-6.46851e-11
-1.66579e-13
1.37954e-11
-1.10627e-10
-1.0307e-11
-1.10739e-10
-1.2638e-12
1.79157e-12
-5.32814e-13
-2.36382e-13
-7.01621e-11
-1.46514e-08
0.00016821
0.000157025
0.000157547
0.000157555
0.000156567
7.65862e-10
4.55558e-13
-2.57284e-11
-1.14753e-10
0.000167229
-1.36847e-07
-3.0826e-11
3.5455e-11
-8.208e-11
0.000157079
-1.66007e-07
1.84973e-13
3.56374e-13
-5.47709e-11
0.000157793
-1.66398e-07
-6.69261e-13
3.09874e-11
-4.69936e-11
0.000158003
-1.63447e-07
-3.08407e-11
3.97827e-11
-1.58975e-12
0.000156986
1.51766e-08
-2.77735e-11
2.13937e-13
-1.19412e-12
7.14918e-10
-1.36889e-07
-1.66079e-07
-1.66477e-07
-1.63776e-07
1.51355e-08
5.14906e-11
1.65746e-13
2.97907e-13
9.84883e-13
1.99214e-13
3.687e-11
7.94407e-13
-1.40746e-12
-1.07001e-12
4.35543e-11
-3.49403e-11
1.48964e-13
-2.69588e-11
-2.267e-11
1.911e-13
-8.05891e-14
-2.62937e-11
1.79844e-11
-3.98296e-11
1.82033e-13
2.77687e-14
0
-3.46792e-11
6.14164e-11
1.44116e-12
-5.67931e-11
5.68345e-11
-5.39482e-11
5.26623e-11
5.6571e-13
-6.83884e-11
-6.19664e-14
-3.96239e-14
7.04866e-11
-6.11983e-13
-5.79988e-13
1.17621e-12
-8.24601e-12
1.08634e-10
-2.58363e-13
1.01702e-11
-6.22735e-14
-6.36133e-13
5.53271e-11
-1.20072e-10
1.56752e-12
-2.57498e-11
1.25005e-13
2.92952e-13
-2.3523e-11
-4.11388e-13
-5.5276e-13
-1.38156e-13
5.86377e-13
-1.08965e-10
1.7331e-13
1.45675e-13
2.75617e-11
5.90978e-11
2.34885e-12
1.4158e-12
2.73626e-11
-2.90713e-13
4.6114e-14
7.50758e-13
-9.05959e-12
-3.92071e-11
2.73661e-11
5.97279e-13
-2.19225e-11
9.95121e-13
7.7354e-11
6.12589e-11
6.90495e-11
2.63408e-11
-5.1219e-11
-1.44123e-12
2.7257e-11
8.836e-14
-3.02377e-11
2.55742e-13
2.6941e-11
3.52137e-11
4.65884e-14
1.777e-12
4.17936e-13
-1.04268e-12
-5.95738e-13
-7.54554e-14
-6.97749e-15
-4.50994e-13
-5.50481e-11
-2.82382e-11
8.08675e-13
-1.96156e-12
6.20383e-11
1.19154e-12
7.8648e-13
5.8143e-11
-2.45384e-13
-5.53182e-11
2.9284e-13
8.79252e-13
-2.92454e-13
-4.58804e-13
6.66066e-11
3.6122e-11
2.26718e-13
1.65731e-13
-2.06323e-10
1.24095e-12
-2.4123e-12
5.90816e-13
-1.76641e-12
1.41473e-12
1.65027e-11
8.7493e-14
-4.41149e-14
-1.17076e-12
2.80356e-10
-5.70842e-11
5.24786e-11
-6.52708e-11
2.92826e-13
-1.01151e-10
-2.89047e-13
2.2681e-13
-5.86474e-14
-2.93069e-13
-1.77244e-12
7.08743e-11
-3.61325e-14
1.97905e-13
-5.90742e-11
-1.1776e-12
1.32741e-12
5.89682e-11
-4.03118e-11
-3.16143e-13
-2.22466e-12
5.42077e-11
2.79703e-11
3.09808e-11
2.38939e-12
-3.47057e-12
-1.33793e-12
3.0163e-13
-2.22001e-13
-9.03996e-11
-2.62757e-11
-3.01411e-13
-2.34658e-13
1.48933e-13
-9.07847e-13
2.512e-13
3.83381e-13
-6.14512e-13
-6.09927e-13
-3.40191e-11
3.13682e-11
3.76647e-11
5.95761e-13
-4.02105e-12
6.12554e-11
3.86963e-13
6.23233e-13
6.2775e-11
-1.79649e-11
1.55967e-11
3.27739e-13
-1.12028e-13
3.12757e-11
2.71297e-13
-5.8142e-11
-2.9957e-13
6.08866e-11
-5.06705e-11
5.86273e-13
-2.92488e-13
7.9387e-13
1.19482e-12
-3.62898e-13
-3.936e-11
-6.56859e-13
6.12329e-13
-4.45416e-13
-1.1828e-13
0
-1.88454e-11
1.13649e-13
-5.44987e-12
-2.5442e-13
3.3033e-12
5.85425e-13
2.15574e-12
8.28191e-11
-7.16197e-14
8.66395e-14
2.92872e-13
-1.33571e-12
8.58627e-14
-2.87851e-14
4.0421e-11
-5.86243e-13
5.9099e-13
-7.10731e-11
-7.67624e-14
3.14381e-13
-2.92489e-13
1.48407e-10
-1.48874e-12
-2.72078e-11
2.77738e-13
-6.52733e-13
2.94472e-13
-5.44588e-11
6.4266e-11
-5.64712e-11
-2.38955e-12
-1.30939e-12
-3.17515e-13
2.90861e-13
5.11478e-13
2.13033e-11
4.89707e-11
0
-2.5007e-11
-2.82964e-11
-8.40609e-14
3.04643e-11
-3.25097e-11
-2.71042e-11
1.55406e-11
3.54553e-15
-1.10917e-12
8.96601e-14
0
2.97866e-13
-2.74444e-13
-6.31573e-14
4.0578e-13
1.28157e-11
-1.12234e-13
-2.4612e-12
-2.79804e-11
-3.48711e-11
2.68088e-11
2.75037e-11
5.96263e-13
5.31844e-13
-5.85387e-13
5.09548e-11
-2.93085e-13
8.77348e-13
-4.06516e-14
-1.31412e-11
-5.86035e-11
-2.77709e-11
6.6435e-11
1.83689e-12
-3.96062e-13
-1.08067e-10
1.6547e-11
-5.88888e-13
1.20235e-10
-5.08592e-11
1.35778e-13
-2.11375e-13
-6.20497e-11
2.38139e-12
7.87855e-12
-2.16644e-11
2.86126e-11
-6.61813e-11
-1.27578e-10
-5.56131e-13
2.76113e-13
1.10959e-13
2.93075e-13
-5.90961e-13
1.812e-13
-3.91453e-13
2.75757e-11
5.84888e-13
-1.57822e-10
-2.89918e-13
-2.81369e-11
2.08558e-13
6.24551e-11
1.20078e-10
-7.32766e-11
-1.67025e-13
-2.99389e-12
1.34394e-11
-7.21235e-11
-7.39133e-11
4.74363e-13
-6.89815e-13
7.67386e-11
-4.91366e-11
0
-4.07385e-13
7.44655e-13
4.73904e-11
9.12924e-13
-1.5789e-13
-3.7959e-11
-1.06293e-13
3.50107e-11
-3.06528e-11
3.8359e-11
-5.95741e-13
3.87245e-12
6.5677e-13
5.80618e-13
-3.24068e-11
-3.68609e-11
3.38012e-13
-1.59764e-11
-2.69955e-13
4.34748e-13
-3.06836e-11
3.18714e-13
-8.94246e-13
1.46122e-13
4.91651e-11
1.757e-12
6.56481e-11
2.92441e-13
-3.90219e-13
1.22416e-11
9.29071e-15
3.89641e-11
-6.61312e-11
2.6321e-11
-1.05402e-10
5.54019e-13
0
5.88424e-13
3.57591e-12
4.99e-11
-2.53475e-13
-2.91689e-12
6.23329e-11
1.47768e-10
-3.208e-11
-1.13064e-13
9.53133e-14
6.44208e-11
-1.32364e-13
-8.33317e-13
3.08283e-14
-4.05982e-11
5.86139e-13
1.55862e-10
8.13079e-13
-1.95157e-13
1.30266e-13
-5.84861e-13
-2.94186e-12
-7.59634e-13
-3.63656e-14
-4.35344e-13
-6.2702e-11
-1.75122e-12
1.56265e-10
-2.51331e-11
2.90568e-11
-5.07571e-12
7.30408e-11
7.39906e-11
-1.12814e-12
3.76185e-13
-2.22897e-11
7.2645e-11
0
-6.83196e-13
2.97895e-13
-2.87147e-14
-2.15132e-13
3.23546e-11
-8.93715e-14
-4.07576e-11
4.42642e-11
3.12642e-11
8.59449e-14
-7.44742e-13
-1.48961e-13
-1.32544e-13
-6.40367e-14
-1.07176e-12
-7.51718e-14
-1.43673e-13
2.26388e-12
8.3909e-15
-5.42542e-13
-2.75622e-11
-2.08068e-12
2.98052e-13
5.87022e-11
-4.86785e-11
-5.87722e-11
-6.52933e-11
1.17351e-12
-8.82634e-13
6.7755e-11
3.63708e-11
1.51615e-11
-5.8035e-13
2.43961e-12
1.16124e-12
7.09013e-12
1.40221e-10
4.95701e-11
-3.16826e-12
-4.8795e-11
2.70217e-13
8.75407e-15
0
1.30069e-10
-1.92091e-12
-2.58568e-11
7.79969e-14
1.46926e-12
5.90829e-13
-5.62842e-11
2.74268e-13
-3.07888e-13
-6.76452e-12
-2.36663e-12
-5.71773e-11
5.15863e-13
-2.71686e-11
-8.80182e-13
1.2806e-10
-3.46008e-11
-2.77861e-11
-3.28916e-13
2.94237e-13
-1.44542e-12
-8.32656e-11
-2.33247e-13
-2.7726e-11
-8.0591e-12
-1.83928e-12
2.81009e-13
-7.73813e-13
-3.51827e-13
-5.41121e-11
-7.38731e-11
-6.01805e-13
1.42895e-13
-2.97959e-13
-9.45024e-11
-1.01518e-12
1.20859e-13
3.87832e-11
4.10818e-13
5.84549e-13
-2.44177e-13
-8.71333e-11
1.48985e-13
1.48966e-13
1.93659e-13
-3.99638e-13
3.26374e-11
-1.57364e-13
5.36266e-13
1.63202e-13
2.80176e-14
1.12492e-13
2.98006e-13
2.01663e-15
5.96355e-13
-5.84304e-11
2.93495e-13
5.76076e-11
0
-6.33896e-11
-7.16465e-11
-6.63192e-11
-3.63743e-11
3.39101e-14
1.17515e-11
6.13733e-13
4.43778e-12
-4.0032e-13
9.34556e-13
-9.09085e-13
-1.01209e-10
1.80941e-11
-2.79797e-11
-2.8235e-13
-2.93414e-13
1.28671e-12
-2.18768e-13
-3.383e-11
-9.80218e-13
2.93886e-13
-1.03231e-10
1.11017e-10
-7.75531e-15
-3.31851e-13
7.35384e-12
1.09742e-10
5.6467e-11
-2.76274e-11
-6.30513e-14
1.17385e-12
1.91582e-12
3.53483e-11
-4.69024e-12
-1.62158e-13
6.89125e-11
-5.60524e-15
5.34787e-14
5.71294e-13
-3.15634e-11
-5.97488e-13
3.10676e-11
-6.02901e-13
1.20923e-12
-6.92182e-15
2.52347e-11
3.01005e-12
3.01422e-13
4.51624e-11
3.32271e-11
2.8163e-11
-2.17199e-14
3.53292e-11
1.6062e-13
-2.59337e-11
-4.46494e-11
-5.90998e-11
-1.04792e-13
3.39722e-11
5.95812e-13
-1.14721e-13
3.04562e-11
8.34588e-13
2.97805e-13
2.18015e-13
-4.62569e-13
-4.8806e-14
-2.9245e-13
1.48993e-13
-2.62978e-11
6.29144e-11
-6.63697e-11
7.76269e-11
0
0
1.25479e-10
7.27455e-11
-8.06535e-12
-1.35621e-11
1.58758e-11
-1.25937e-11
3.06805e-12
1.3574e-10
-5.88765e-13
5.89762e-13
-5.87928e-13
-1.01275e-10
1.39129e-10
-1.53602e-12
1.3452e-13
5.85656e-13
4.69907e-12
-2.59667e-13
6.10434e-11
2.13746e-13
-5.24127e-11
5.88753e-13
-5.34062e-11
4.57666e-13
2.7768e-13
-5.86148e-13
2.35902e-12
-5.69481e-13
-6.11882e-13
2.03474e-13
-2.9247e-13
6.46719e-12
-5.67294e-13
2.07975e-11
2.33349e-13
-6.96791e-11
5.92197e-11
7.67749e-11
9.22087e-14
2.03564e-15
-8.96187e-13
2.25336e-13
-5.37794e-11
8.37241e-11
4.63169e-14
-2.51458e-11
-1.23615e-13
-1.20555e-12
5.81933e-13
-2.97991e-13
4.6778e-11
2.64469e-11
-3.76713e-11
1.03268e-13
-3.68727e-12
-4.11412e-13
-4.14589e-11
8.37003e-12
1.49e-13
0
-7.50595e-13
-1.42583e-13
-3.32697e-11
1.90667e-11
-3.13339e-11
-6.08143e-11
-4.5026e-13
-5.08594e-13
2.86088e-11
-2.9402e-13
-6.351e-11
6.70689e-11
-7.70446e-11
0
0
-6.25889e-11
-2.9424e-13
7.76715e-12
6.81929e-11
-2.74691e-13
1.10962e-12
3.68293e-12
1.1566e-12
-1.9462e-11
-1.10499e-10
-1.16003e-10
4.62951e-12
1.15432e-10
2.67356e-13
3.97765e-12
2.92839e-13
7.94098e-12
-8.61143e-13
3.31652e-11
-5.54776e-14
5.24088e-11
-1.22876e-12
5.87803e-11
-1.01782e-13
8.83711e-14
-5.27527e-11
0
-6.81562e-11
2.80458e-11
3.55716e-13
1.1698e-12
2.35537e-12
-1.41326e-13
5.16845e-12
-2.8067e-13
2.8474e-13
3.63445e-13
-1.56146e-10
-2.84741e-11
-1.61722e-11
2.98727e-13
1.06755e-12
5.38621e-11
-8.34044e-11
-5.51872e-15
-5.21777e-11
-1.35826e-12
1.50722e-12
-1.9191e-11
-3.33772e-11
-2.85474e-11
2.94154e-13
-3.51471e-11
-6.13209e-13
2.57317e-11
-1.74645e-13
2.7621e-11
6.48346e-13
-3.35271e-11
0
6.81563e-13
-3.04598e-11
-3.32364e-11
-2.57817e-11
-1.07359e-13
1.16896e-12
-2.65106e-11
-5.89393e-11
-3.21964e-11
5.99682e-13
-5.4273e-11
2.6625e-13
0
1.46432e-12
5.86233e-13
-2.92484e-13
-8.82704e-13
-1.19502e-12
-5.8923e-13
-4.00931e-11
1.04634e-12
-6.13853e-13
-3.50554e-11
1.03221e-10
-5.31836e-12
-2.94441e-12
1.86656e-12
-1.14948e-10
1.47063e-12
2.5691e-11
-2.92861e-13
7.05895e-13
1.81742e-12
-6.11239e-11
3.4449e-11
8.78473e-13
-5.68654e-11
-5.85782e-11
-3.60318e-13
2.58879e-11
1.17534e-10
-1.21734e-10
6.86302e-11
6.81686e-13
-1.85256e-13
-2.04731e-12
5.88888e-13
7.96604e-11
7.01086e-12
-2.65339e-11
-6.63566e-13
-9.08093e-13
7.96054e-11
5.3644e-13
4.11966e-14
9.56029e-11
5.63237e-11
9.08454e-14
-2.68291e-14
-3.80634e-14
5.23174e-11
-1.79088e-13
7.47596e-11
-1.19857e-13
-3.1749e-11
3.07206e-11
-2.61409e-11
7.48858e-11
9.60445e-15
-2.55304e-11
2.54817e-11
4.1534e-11
3.03114e-11
-1.93783e-12
5.96492e-13
8.83419e-13
7.76017e-13
3.27178e-11
-1.8641e-11
3.09433e-11
6.04208e-11
2.73113e-11
2.76632e-11
-2.90865e-11
9.34465e-13
5.48857e-11
5.6323e-11
7.8204e-11
-1.75699e-12
2.93091e-13
-5.79077e-11
-2.94245e-13
8.96354e-13
-5.84025e-11
-4.68715e-11
5.62047e-11
1.84059e-12
-1.33333e-12
5.89597e-13
0
8.77185e-11
-1.30048e-12
-6.50512e-13
2.79157e-11
-3.72698e-12
5.73966e-11
-1.64384e-10
3.50296e-14
3.24991e-13
-2.46308e-11
5.62184e-11
1.1617e-10
-6.4523e-13
2.05407e-13
-2.06845e-14
-7.61979e-12
-3.54406e-12
-1.65082e-13
-2.023e-13
-3.10051e-11
1.16988e-12
0
-7.95111e-11
2.88741e-13
-3.94214e-11
1.30005e-12
-1.07101e-10
-8.0448e-11
2.75932e-11
2.20263e-11
-9.50143e-11
-1.18617e-10
-2.43547e-11
2.69531e-13
5.33337e-11
5.68313e-11
-5.10982e-13
-7.56487e-11
4.32652e-13
1.49161e-13
3.02396e-13
-1.16756e-14
5.04833e-13
6.62367e-13
4.95788e-13
2.72054e-13
-3.24242e-11
-3.21086e-11
1.49172e-13
1.49254e-13
-5.75305e-13
1.45882e-12
3.34745e-11
2.54025e-11
-2.18987e-13
-5.29842e-13
2.68647e-11
5.91103e-11
3.19456e-11
-2.9151e-11
-6.65768e-11
-5.63575e-11
-8.42278e-11
0
-1.46919e-12
5.86477e-11
-5.21475e-11
-5.44071e-11
1.08878e-13
3.7474e-11
-5.74701e-11
-6.12068e-13
7.67324e-13
4.22987e-11
5.88417e-13
1.05014e-10
1.36186e-10
-6.02317e-13
3.13437e-13
-2.6098e-11
-5.72167e-11
1.13505e-10
-7.26164e-11
2.58953e-11
-3.40373e-11
-5.64186e-11
-1.06268e-10
6.21761e-11
6.06035e-14
-2.61879e-11
-5.85243e-11
1.17596e-12
-1.17633e-12
-1.26362e-13
3.64359e-13
5.13491e-11
-5.27656e-12
-1.76283e-13
-1.72037e-13
-8.90225e-12
-5.47836e-13
-2.1321e-14
8.07936e-11
-1.43298e-14
4.28946e-14
0
6.26124e-11
-5.09264e-11
8.20659e-13
-5.40783e-11
-5.73782e-11
1.71116e-12
-3.01277e-13
2.60271e-11
2.77657e-11
-7.73539e-11
2.21684e-13
-3.69857e-11
-4.31079e-13
2.91314e-11
-2.57215e-11
7.69054e-12
6.86368e-12
2.09024e-12
-2.70074e-11
-7.78652e-13
-1.6745e-13
8.34141e-13
6.88368e-14
7.02807e-14
2.75038e-15
3.39022e-11
-2.66869e-11
5.9689e-13
-9.15234e-13
-5.9733e-12
3.71335e-13
6.82867e-12
-2.97701e-13
1.78729e-12
-2.67584e-12
5.13755e-11
5.38349e-11
2.7113e-11
4.69566e-11
-9.9203e-12
3.05894e-12
2.23279e-10
1.22819e-10
-1.01694e-10
1.11153e-10
2.91815e-12
6.44402e-13
-3.9678e-13
2.50963e-11
8.79721e-14
-2.99738e-12
7.22131e-11
6.63175e-13
5.15855e-11
2.38062e-13
-2.0024e-11
-6.1037e-11
3.55173e-13
-2.55186e-13
5.41548e-13
1.28472e-10
-6.0198e-13
4.5442e-13
3.08545e-11
-5.09409e-11
5.09e-12
-8.99775e-13
1.37682e-13
3.97103e-11
6.62692e-13
-1.2495e-10
7.42433e-14
-3.32809e-13
7.23893e-11
0
1.28952e-12
7.63459e-11
-1.50347e-12
1.80602e-12
8.99772e-13
-1.23905e-10
1.8092e-12
-1.39947e-13
0
-1.94416e-13
-1.84039e-13
-3.25079e-13
2.95289e-11
2.97326e-13
2.97424e-11
3.23296e-11
3.1749e-11
-7.46291e-13
-8.93264e-13
8.14267e-15
-1.38286e-12
1.70132e-13
-1.79588e-13
-3.4647e-13
3.36695e-11
2.68929e-11
2.87204e-11
4.46635e-13
2.92719e-11
7.11311e-11
0
-6.73994e-13
5.24391e-13
-2.96748e-13
3.26153e-12
-5.92869e-13
-2.97476e-13
-7.23742e-12
3.75938e-13
9.30314e-12
4.25117e-11
-2.87673e-11
5.31999e-12
1.70512e-11
5.18801e-11
-6.13321e-11
-6.01354e-13
-2.11045e-13
6.33173e-14
-5.32795e-11
0
1.84559e-11
-1.00768e-12
-4.78409e-11
-4.55931e-11
-1.71414e-12
5.94463e-11
-9.07535e-14
-6.21534e-13
1.54905e-13
-5.91464e-13
-2.12087e-11
-2.25193e-11
2.4762e-11
-2.23801e-11
-3.48544e-12
-2.9659e-12
1.95077e-13
1.0482e-13
1.1889e-13
1.13006e-10
-6.36473e-12
1.93692e-11
-1.42511e-11
1.68979e-11
-1.85318e-10
0
-2.79316e-11
3.03105e-11
1.06666e-12
1.6203e-10
-5.49153e-11
-5.79593e-11
-9.98716e-11
-3.78197e-13
-1.16149e-12
-5.12647e-11
-3.87315e-13
3.58074e-11
0
7.51957e-11
-1.05146e-10
-1.46969e-10
5.80931e-13
2.72943e-11
2.84143e-12
6.27215e-11
-2.57411e-11
-1.58685e-13
-5.1162e-11
6.60671e-11
-8.87153e-13
-5.13102e-11
5.60841e-11
-5.92627e-13
1.22775e-10
-1.78649e-12
-2.56247e-11
3.72179e-12
4.72074e-11
-1.66855e-14
-1.18416e-14
3.03199e-11
1.77079e-13
-2.66633e-13
-8.02717e-12
-4.28192e-14
-2.97813e-13
2.58331e-11
5.93528e-13
-1.18548e-12
1.4803e-13
1.47989e-13
1.25789e-11
2.96048e-13
-8.50549e-11
-2.96755e-13
-7.42328e-13
-2.58142e-11
3.42799e-11
9.23247e-13
-3.52961e-15
-1.84e-12
-3.63508e-13
-2.63524e-11
2.79575e-13
2.05393e-11
2.96759e-13
-2.26654e-11
9.72996e-12
6.77717e-11
0
-4.37496e-14
6.90551e-14
-6.16529e-13
8.81762e-13
5.82068e-11
2.86347e-12
-2.54532e-11
8.39557e-11
4.35933e-14
-1.16707e-12
2.95347e-13
-9.43804e-13
2.53789e-11
1.68453e-12
1.31423e-11
-2.9601e-13
-2.63351e-11
2.70726e-11
1.31456e-12
1.9519e-14
-2.38974e-11
-1.77924e-14
2.15204e-11
-5.29914e-11
1.03944e-11
-3.9953e-12
5.91831e-13
-1.38491e-11
5.44169e-11
4.54652e-12
1.54403e-11
2.54557e-12
1.57341e-11
5.28058e-11
-1.49158e-11
-1.03587e-12
3.62604e-11
1.06037e-11
1.70116e-13
4.82784e-11
2.63409e-12
2.66731e-13
8.11382e-13
-2.73587e-11
-1.95227e-11
2.96055e-13
5.9265e-13
1.68546e-11
-6.81969e-11
-1.71368e-12
-2.94384e-13
1.77e-12
-7.14827e-11
1.8182e-11
-1.00143e-11
-2.45994e-11
-4.62923e-11
8.23319e-12
-6.76569e-11
-1.39258e-11
2.04294e-11
-2.91939e-11
2.90091e-11
9.62788e-12
7.99708e-12
-1.48395e-13
-2.7168e-11
-3.53127e-11
9.6109e-14
-1.47993e-13
-2.97401e-11
-5.91861e-13
-2.94528e-11
0
-1.48379e-13
7.42413e-13
8.89222e-13
-1.4813e-13
-1.4802e-13
-3.19553e-11
9.76267e-12
0
-3.34346e-11
-2.73831e-11
-1.48126e-13
-1.48201e-13
4.13251e-11
9.91484e-12
-7.39135e-13
2.77789e-11
4.2563e-11
-7.38931e-13
3.84163e-11
1.47817e-13
-3.37406e-11
3.09568e-11
7.40004e-13
-1.4782e-13
-3.10969e-11
-9.95995e-13
-4.43077e-13
8.56596e-12
5.16401e-13
1.0881e-11
1.88403e-12
2.69383e-11
0
1.2559e-11
-9.07446e-12
-8.53329e-12
-2.0358e-12
-8.88279e-12
-1.18155e-12
6.67392e-12
-2.95427e-13
1.4792e-13
0
-1.56651e-11
1.38828e-11
1.48061e-13
3.93103e-11
-2.44765e-11
1.4786e-13
-9.95852e-13
-1.4773e-12
-6.80295e-12
-1.03534e-12
-2.24633e-11
-3.67742e-11
1.91724e-11
-5.38489e-11
-2.65569e-11
1.47877e-13
-9.92032e-12
9.89738e-12
2.76557e-11
-3.99405e-12
-3.02897e-11
-1.10656e-12
1.63571e-11
3.01633e-11
1.47876e-13
2.98051e-11
7.84921e-12
1.09301e-11
2.95839e-13
1.48007e-13
-2.51284e-11
-8.48324e-13
8.48038e-12
1.10646e-13
-6.19536e-12
3.31646e-13
9.10663e-12
-1.47794e-13
2.56049e-11
-1.48121e-13
-2.95963e-13
1.7805e-11
-2.95412e-13
-2.77716e-11
7.38577e-13
-1.47696e-13
-2.97054e-11
0
1.4812e-13
1.77836e-12
1.33306e-11
-2.61972e-11
-4.43738e-13
-2.8837e-11
3.47513e-11
2.64746e-11
2.95982e-13
0
4.44599e-13
-1.48056e-13
2.96026e-13
1.03569e-11
-4.43746e-13
2.95805e-13
-3.88977e-11
8.8746e-13
6.13985e-11
0
2.96103e-13
2.56052e-11
-3.31402e-11
-5.91523e-13
-1.47845e-13
1.47847e-13
4.4353e-13
1.47835e-12
2.95733e-13
0
2.96007e-13
5.23727e-11
-1.47872e-13
2.89701e-11
-7.39012e-13
-1.4784e-13
-5.91341e-13
0
-6.60606e-11
-3.45999e-11
-2.95884e-12
2.95809e-13
-4.13948e-11
3.6063e-11
1.47854e-13
5.76964e-12
1.47929e-13
-4.43464e-13
-3.01436e-11
2.9563e-13
-2.95784e-13
0
-5.91364e-13
-4.16902e-11
-1.47938e-13
5.92257e-13
3.02032e-11
4.43688e-13
-3.2808e-11
-3.63602e-11
-2.97222e-11
-1.59719e-11
3.23764e-11
-2.5575e-11
-1.47928e-13
-5.92215e-13
2.961e-13
0
1.18222e-12
1.478e-13
5.91472e-13
-6.06399e-12
-2.9566e-13
-3.35467e-11
-2.6016e-11
7.39467e-13
4.43668e-13
-2.95562e-13
2.82174e-11
-3.53238e-11
-4.43652e-13
-7.39719e-13
-4.43584e-13
-3.63546e-11
-5.67397e-11
-2.9556e-13
2.7781e-11
-2.9546e-13
-4.43256e-13
-8.8704e-13
2.44087e-11
2.79726e-11
0
4.43571e-13
-2.95618e-13
1.47797e-13
0
-3.00014e-11
-3.29673e-11
0
-1.4799e-13
2.79806e-11
3.52241e-11
0
7.39413e-13
0
1.47858e-13
-2.95749e-13
1.47923e-13
-2.95975e-13
-2.96081e-13
7.39884e-13
-2.84072e-11
0
3.16511e-11
-9.90888e-12
0
-7.39494e-13
0
-2.84058e-11
-4.43912e-13
-4.12784e-11
-3.99393e-11
5.91576e-13
-2.80974e-12
-1.47879e-13
0
1.47872e-13
-1.47883e-13
-4.43747e-13
-2.42629e-11
-1.03544e-12
2.67686e-11
-1.47869e-13
1.47872e-13
3.57884e-11
1.03516e-12
3.17897e-11
-1.33069e-12
-2.95761e-13
6.50802e-12
0
-1.30132e-11
-2.79474e-11
4.43686e-13
1.0355e-12
5.91693e-13
1.47877e-13
-3.14912e-11
1.56728e-11
2.95761e-13
1.47888e-13
0
1.47882e-13
1.47927e-13
-7.39868e-13
2.44147e-11
1.47904e-13
4.43554e-13
1.47847e-13
6.65399e-12
1.03523e-12
-3.99259e-12
2.82448e-11
-5.02932e-12
0
2.60408e-11
2.66212e-12
2.88297e-11
-1.47841e-13
4.43593e-13
-2.61777e-11
-7.3936e-13
-3.59295e-11
-1.33088e-12
-3.1651e-11
-2.95788e-13
2.06992e-12
-2.63132e-11
2.83855e-11
2.95743e-13
2.95827e-13
-2.82456e-11
-2.79444e-11
-3.54823e-12
1.47847e-13
-1.47842e-13
7.39119e-13
-8.8696e-13
1.47859e-13
0
1.47944e-13
-2.36658e-12
-1.47873e-13
8.87101e-13
2.91248e-11
1.47835e-13
3.075e-11
0
3.77127e-11
3.04728e-11
-1.9236e-12
-1.34626e-11
2.60308e-11
-1.03512e-12
-1.4786e-12
-3.48942e-11
-2.60245e-11
-1.47891e-13
2.95851e-13
-2.95913e-13
1.33137e-12
-2.83999e-11
-9.90941e-12
0
-2.95768e-13
2.69144e-11
-7.39421e-13
-3.62338e-11
-1.47911e-13
2.95844e-13
0
-2.9581e-13
0
-2.9577e-12
-1.47884e-13
1.47881e-13
-1.47878e-13
-5.91513e-13
-1.47892e-13
-1.47904e-13
-2.95796e-11
2.57329e-11
-4.43651e-13
7.39447e-13
3.56435e-11
8.87363e-13
3.12024e-11
3.10526e-11
4.43624e-13
3.34222e-11
1.47886e-13
-1.47883e-13
-6.31487e-11
-2.95818e-13
-1.77512e-12
7.39604e-13
4.43679e-13
-3.10522e-11
1.56733e-11
-1.47867e-13
-2.95764e-13
2.95763e-13
0
0
-1.18362e-12
-3.00328e-11
0