/*--------------------------------*- C++ -*----------------------------------*\
  =========                 |
  \\      /  F ield         | OpenFOAM: The Open Source CFD Toolbox
   \\    /   O peration     | Website:  https://openfoam.org
    \\  /    A nd           | Version:  10
     \\/     M anipulation  |
\*---------------------------------------------------------------------------*/
FoamFile
{
    format      ascii;
    class       volScalarField;
    location    "1.1";
    object      gradTy;
}
// * * * * * * * * * * * * * * * * * * * * * * * * * * * * * * * * * * * * * //

dimensions      [0 -1 0 1 0 0 0];

internalField   nonuniform List<scalar> 
47104
(
4.37803e-13
4.37779e-13
2.88613e-13
-9.20384e-15
-4.45675e-13
2.97116e-13
2.76509e-11
3.07238e-13
-2.88822e-13
-2.07331e-11
6.04907e-13
4.36832e-13
6.94599e-13
5.07338e-12
-2.60679e-13
-5.6433e-13
-2.92665e-13
-1.68289e-13
1.27886e-13
3.06245e-13
1.92078e-11
6.87992e-13
2.33985e-14
2.0725e-13
5.22688e-13
1.19897e-13
-2.76365e-11
-1.04742e-12
-4.27947e-14
2.07627e-11
1.4431e-13
3.07703e-13
-9.81717e-14
-4.9226e-12
4.67003e-13
4.07228e-13
4.8656e-14
1.38152e-13
-2.72747e-13
-4.00805e-13
-1.9645e-11
-7.02995e-13
1.0832e-12
-1.17306e-13
1.16798e-12
1.43009e-13
4.38218e-12
3.83547e-13
2.12719e-11
-3.56994e-13
-3.66891e-13
1.893e-11
-3.46931e-13
2.46253e-15
-8.16658e-14
-2.94533e-13
1.16887e-14
1.27164e-13
2.72784e-12
1.21853e-13
8.22231e-14
3.91602e-13
-8.43363e-13
-5.62436e-13
-2.84342e-11
2.44905e-14
-4.53008e-12
-6.88526e-14
-2.14739e-11
5.27451e-13
1.98883e-13
-1.87518e-11
-1.49511e-15
8.3574e-13
3.95612e-13
2.51101e-13
-1.00785e-13
2.15824e-11
-2.90841e-12
2.22969e-11
-2.16963e-14
-2.45185e-13
3.93459e-13
1.60857e-13
2.81375e-11
-2.09017e-11
-1.58003e-14
-7.09793e-13
-1.95825e-11
-5.69126e-13
9.51284e-15
1.39735e-13
4.37336e-13
-7.34223e-13
1.48533e-13
-2.10921e-11
1.57886e-13
-2.21977e-11
-1.93874e-11
-2.22055e-11
-8.91003e-14
0
-3.49434e-11
-1.50719e-11
1.49178e-13
-1.49177e-13
2.89498e-11
1.86659e-11
-2.27003e-11
6.01163e-14
-1.21128e-11
-7.16012e-14
1.93796e-11
8.97316e-12
6.24484e-12
-7.14228e-12
-8.93571e-12
-6.21038e-12
-9.58912e-15
-4.41381e-13
-3.47331e-13
-1.14037e-13
3.24348e-11
2.41745e-11
-4.89917e-13
-2.49477e-13
-3.72499e-11
-2.49753e-11
2.56906e-12
-2.15708e-11
1.26798e-11
5.11758e-14
2.17777e-13
-4.42193e-11
1.1625e-12
5.77469e-11
-9.10005e-15
-4.18912e-13
3.11778e-13
-2.31623e-11
-1.92046e-11
-1.08409e-13
5.08313e-11
4.46694e-11
-7.52389e-13
-5.74678e-11
1.03177e-12
2.29084e-13
-4.93461e-12
2.05429e-12
-1.98016e-11
2.75106e-11
-4.99827e-11
-1.04917e-13
7.77724e-13
4.31139e-14
-6.01315e-13
-4.13533e-13
-2.25912e-11
4.32813e-11
1.94571e-11
-1.44014e-13
-4.17835e-11
-3.7774e-11
4.1937e-11
2.11499e-13
5.28566e-13
3.14203e-13
2.48481e-11
1.95499e-11
1.96075e-11
-7.79022e-12
4.15883e-11
3.82353e-11
-4.41664e-11
-1.06228e-12
1.8806e-13
-6.00728e-14
2.24919e-11
-3.97736e-11
-1.89758e-13
-3.64575e-13
3.02993e-12
-1.42426e-11
-1.12168e-13
-2.59114e-11
-2.71035e-11
-3.36682e-13
-6.25401e-14
-7.23386e-14
0
-1.97109e-11
-9.7039e-12
-2.9838e-13
4.47445e-13
-3.0129e-11
-1.96949e-11
1.19447e-12
2.98674e-13
1.92482e-11
2.09334e-13
1.14947e-11
-2.68452e-11
-2.71187e-11
-9.38922e-12
-4.47107e-13
1.04303e-12
-1.49134e-13
9.70241e-12
6.01426e-14
-4.92563e-12
-5.21086e-11
-4.97996e-11
-3.7488e-11
3.84931e-12
6.45519e-13
-1.93597e-12
-3.44167e-13
1.74851e-13
1.09579e-13
-2.28752e-13
2.88454e-11
-8.10705e-12
9.17689e-10
1.53602e-09
1.52878e-09
1.53937e-09
-1.26456e-10
-2.60455e-13
-2.39079e-13
5.22669e-12
-9.3534e-13
5.82966e-12
-2.97621e-07
-2.98341e-07
-3.03476e-07
-2.55514e-07
-2.67626e-08
-3.8946e-13
-6.11024e-14
-2.64721e-13
5.93017e-13
-4.87043e-11
-4.00809e-09
1.68349e-07
1.78376e-07
1.37258e-07
-5.59305e-09
-9.92784e-14
3.62899e-15
-3.50579e-14
2.38697e-13
4.89754e-11
1.04527e-09
-3.78317e-08
-4.04068e-08
-3.05576e-08
1.33671e-09
2.84413e-13
7.00724e-14
4.6866e-13
-1.80504e-12
4.52208e-12
8.40052e-09
-4.83375e-07
-5.05348e-07
-4.05929e-07
1.54064e-08
-6.73441e-11
-2.97838e-13
-6.44007e-14
1.45752e-12
-1.74911e-12
6.3348e-08
1.08576e-07
1.11327e-07
9.97152e-08
-3.23293e-09
1.15809e-10
1.67203e-13
4.36654e-14
-2.98428e-13
1.03239e-13
-4.03522e-11
-2.80095e-13
-3.48144e-13
3.42028e-13
4.14556e-11
-4.83089e-11
6.31205e-14
1.49184e-13
-2.65638e-11
2.89221e-11
-1.4896e-11
1.50495e-11
-8.49368e-12
-8.93881e-13
2.04284e-11
7.16441e-12
-2.98375e-13
-2.11366e-11
-2.97288e-13
1.47666e-13
-4.31326e-11
-4.17532e-11
2.1243e-11
-3.30105e-11
-4.42948e-12
-1.33752e-11
-2.41094e-11
-2.12192e-11
-1.56083e-13
1.36936e-10
9.38494e-09
7.77906e-09
7.672e-09
8.30555e-09
9.47686e-09
-2.83962e-11
-3.36476e-13
6.31479e-14
-2.9601e-13
5.09028e-09
0.000161137
0.000166955
0.000167892
0.000166181
0.000162132
9.37402e-09
3.13042e-12
6.177e-13
-4.71102e-11
-6.20214e-07
-1.16461
-1.84377
-1.85395
-1.82875
0.26589
5.39629e-08
1.77483e-13
-2.18073e-11
-1.02018e-11
-1.73155e-09
-0.00940538
-0.0316358
-0.0329736
-0.0300649
-0.0291114
3.05038e-09
2.10444e-11
-2.53674e-13
4.38495e-12
5.22267e-10
0.000598745
0.00187642
0.00196907
0.00177048
-0.031444
-7.01909e-10
6.16585e-14
4.09646e-11
2.31872e-11
2.07761e-08
0.0253658
0.0897651
0.0921605
0.0863964
-0.0331058
-1.23564e-08
-1.39538e-13
-9.77885e-14
6.60767e-11
1.63304e-06
1.04375
1.31855
1.32345
1.3077
-0.296138
-1.08595e-07
-1.59913e-13
-1.91573e-11
2.64375e-13
-2.74532e-08
9.99399e-06
9.19055e-06
9.15919e-06
9.32243e-06
7.1204e-06
-1.25149e-10
3.14261e-14
-1.48842e-13
-8.91552e-13
3.69031e-11
4.41486e-11
5.66873e-11
3.64755e-11
3.62349e-11
-1.18119e-12
3.22511e-11
2.977e-13
-2.39351e-11
4.45245e-13
-5.73096e-12
-1.80283e-10
-2.2091e-10
-2.17017e-10
-1.6116e-10
1.80757e-11
-4.45151e-13
-2.82407e-12
-2.73904e-11
6.51133e-13
-6.71387e-10
-6.56076e-07
-1.08188e-06
-1.05359e-06
-1.13887e-06
4.7078e-08
-6.74007e-14
-2.95347e-11
2.33923e-11
2.7147e-11
-4.32801e-07
-1.30168
-1.57634
-1.5793
-1.57228
-0.00307496
8.997e-08
2.59147e-12
2.796e-11
8.72758e-09
0.0343571
3.30848e-05
3.09381e-11
4.01033e-13
2.99773e-09
0.000934748
2.28227e-06
3.1645e-11
-4.73179e-13
-5.7594e-10
0.00021206
-3.80258e-07
-9.98124e-13
-1.51005e-12
-7.33091e-09
-0.00170763
-9.91176e-06
-3.26781e-11
2.37435e-13
1.80104e-09
0.0017308
4.33038e-06
2.8097e-13
-2.48835e-13
-4.35712e-11
1.74802e-07
0.0018576
0.00224001
0.00224511
0.00221825
-0.00010322
7.15319e-10
5.58361e-14
-1.4865e-13
7.4179e-12
-5.87608e-12
1.67913e-10
1.96019e-10
2.18015e-10
2.28803e-10
-2.17492e-11
3.36869e-11
-1.48668e-13
-1.90344e-11
-7.428e-13
6.32303e-12
-1.53594e-10
-2.15771e-10
-2.30369e-10
-1.67301e-10
3.13339e-11
1.60437e-11
0
-4.26184e-13
8.98296e-12
-9.10547e-10
-5.75017e-07
-1.13663e-06
-1.10042e-06
-1.20828e-06
5.09293e-08
-1.30617e-11
2.15677e-11
1.90385e-11
3.23607e-11
-6.73358e-07
-1.3391
-1.64586
-1.65
-1.64001
-0.00186075
9.54509e-08
-1.87886e-11
1.21782e-12
9.45173e-09
0.0431733
3.90393e-05
-2.045e-11
6.14747e-13
4.06921e-09
0.0011941
3.12609e-06
2.05844e-11
-6.37184e-13
-6.83427e-10
0.000152422
-5.09996e-07
2.02096e-11
1.91666e-11
-9.9305e-09
-0.00453601
-1.28373e-05
-5.27097e-12
9.64818e-12
6.96267e-10
-0.00288893
4.88112e-06
-2.04604e-11
-2.0977e-11
4.86286e-13
2.1888e-07
0.00190646
0.00240114
0.00240872
0.00233887
-2.97798e-05
9.93961e-10
3.14327e-12
-9.66437e-12
0
-8.67333e-12
1.87068e-10
2.19064e-10
2.16923e-10
1.66679e-10
6.02937e-12
4.48616e-11
-2.9742e-13
-1.04154e-12
-8.17788e-12
7.94736e-12
-1.48464e-10
-2.07062e-10
-2.01884e-10
-1.57969e-10
1.47233e-13
6.69076e-12
2.15712e-11
-3.15189e-11
-1.18832e-11
-9.99505e-10
-5.42352e-07
-1.09489e-06
-1.05644e-06
-1.17288e-06
5.11207e-08
5.26584e-14
-8.07062e-14
-4.4732e-13
7.37974e-11
-6.66588e-07
-1.34083
-1.649
-1.65331
-1.64299
-0.00187955
9.59866e-08
-2.19659e-11
3.13753e-11
9.21491e-09
0.0431849
3.94741e-05
-2.0284e-11
-2.8632e-11
4.40981e-09
0.00122485
3.2487e-06
5.94299e-13
-3.13937e-13
-6.25809e-10
0.000119674
-5.31614e-07
2.0726e-11
2.84848e-11
-1.01553e-08
-0.00237111
-1.30813e-05
2.64293e-11
-2.29076e-13
1.02828e-09
0.00182157
4.89356e-06
-1.50784e-13
-1.56613e-13
-4.96893e-11
2.19038e-07
0.00191133
0.00241011
0.00241837
0.00237388
-0.000112872
1.0088e-09
-2.76429e-11
1.48765e-13
-2.60095e-11
1.02995e-11
1.34077e-10
2.31869e-10
2.31598e-10
1.55005e-10
-1.76608e-11
8.02867e-12
-1.48797e-13
0
4.37371e-11
-4.41781e-13
-1.64535e-10
-2.19199e-10
-2.53612e-10
-1.14339e-10
8.98656e-12
-6.54571e-12
-5.9536e-13
7.45202e-14
5.4333e-11
-9.71479e-10
-5.38575e-07
-1.09248e-06
-1.05395e-06
-1.17122e-06
5.11942e-08
2.90407e-12
-5.40989e-13
-3.64807e-13
6.846e-12
-5.62018e-07
-1.34084
-1.64927
-1.6536
-1.64323
-0.00187888
9.58991e-08
2.02903e-11
1.23228e-12
1.10419e-08
-0.00533102
3.94882e-05
1.50394e-12
1.15563e-12
4.89575e-09
0.00195722
3.25153e-06
-1.97998e-11
-2.51943e-11
-5.14664e-10
0.000129575
-5.32165e-07
-5.43217e-13
-9.59716e-13
-1.01165e-08
-0.00230376
-1.30968e-05
-1.39822e-12
2.561e-11
1.08085e-09
0.0018222
4.89565e-06
2.95107e-13
-6.15226e-14
-3.98926e-11
2.11925e-07
0.00191209
0.00241098
0.00241912
0.00236983
-0.000111452
9.63942e-10
1.34943e-13
1.48836e-13
1.51679e-11
-3.51856e-11
1.70317e-10
2.33909e-10
2.20351e-10
1.82285e-10
-2.94541e-12
9.07457e-12
1.4887e-13
-4.46712e-13
-1.26497e-11
1.76829e-12
-1.61536e-10
-2.04198e-10
-2.26789e-10
-1.75992e-10
-5.454e-12
6.69694e-12
-2.97795e-13
-5.69734e-13
-3.89989e-12
-9.62146e-10
-5.60702e-07
-1.12262e-06
-1.08609e-06
-1.1962e-06
5.11202e-08
-4.82913e-13
-2.57453e-13
1.62924e-13
1.29404e-11
-5.29504e-07
-1.34037
-1.64804
-1.65227
-1.64208
-0.0018559
9.561e-08
-9.26526e-14
1.53499e-12
1.36381e-08
-0.00843235
3.90774e-05
1.08876e-12
2.13543e-11
4.82866e-09
0.00187936
3.13272e-06
2.12191e-11
-7.668e-13
-5.61319e-10
0.000148064
-5.08271e-07
-1.06451e-12
-2.25304e-11
-9.92364e-09
-0.00226356
-1.28334e-05
-2.22166e-11
4.63197e-13
1.00652e-09
0.00181895
4.89539e-06
8.77643e-13
8.04806e-14
7.03865e-11
2.0385e-07
0.0019107
0.00240537
0.002413
0.00234386
-2.97022e-05
9.9209e-10
-4.85014e-13
1.48892e-13
-6.99177e-12
-1.29635e-11
1.69937e-10
2.07644e-10
2.14757e-10
1.77411e-10
3.09462e-12
0
-7.44626e-13
-2.78495e-11
3.72134e-12
1.76985e-12
1.34074e-11
-2.38061e-11
-2.07583e-11
-1.9677e-11
-4.42523e-12
-3.94479e-11
1.48938e-13
-2.57788e-11
6.848e-13
-8.56566e-10
-3.48946e-07
-4.29293e-07
-3.96123e-07
-5.2273e-07
4.34871e-08
-8.92382e-11
2.02244e-11
5.4061e-12
2.14287e-11
-6.35994e-07
-1.31851
-1.60035
-1.60364
-1.59579
-0.00296538
8.48636e-08
2.63347e-11
2.57032e-11
5.46192e-09
0.0363518
2.7669e-05
-1.97609e-11
7.21514e-13
1.42603e-09
0.000972131
1.9362e-06
-2.65697e-11
4.23647e-13
-1.93336e-10
0.000131576
-3.13497e-07
2.27211e-13
4.10499e-11
-3.65415e-09
-0.00169193
-7.85086e-06
2.94352e-12
-3.00254e-13
7.81738e-10
0.0018048
3.7167e-06
2.77081e-13
-2.07215e-11
-5.90198e-12
1.86392e-07
0.00165932
0.00187679
0.00188036
0.00186943
-9.81538e-05
8.38786e-10
-2.85961e-12
0
9.52349e-12
-1.47436e-13
5.12849e-11
1.52394e-11
1.75628e-11
-2.0984e-11
-4.48317e-11
0
-4.46885e-13
0
5.95421e-13
-6.93316e-12
-2.62369e-11
7.54872e-12
-2.38068e-11
1.02016e-11
-6.93218e-12
-1.48874e-13
-2.68119e-12
3.10986e-14
-3.60994e-13
3.60872e-11
2.61234e-09
2.66e-09
2.5935e-09
2.62192e-09
1.57421e-09
-2.7484e-11
2.13665e-14
5.99078e-14
5.9527e-13
-4.11832e-07
-0.000800649
-0.000830568
-0.000831549
-0.000829792
-0.000750672
2.31279e-09
2.57323e-12
1.09307e-13
-3.73049e-11
5.95297e-06
-2.39743e-08
2.38351e-11
1.62782e-13
-4.82968e-11
1.23616e-07
-1.76848e-09
-7.35646e-14
-2.01098e-11
4.13163e-11
3.39857e-08
2.25788e-10
-4.76632e-11
1.92789e-13
1.57921e-11
-3.3279e-07
6.37684e-09
2.38503e-13
1.97711e-11
2.74124e-11
-2.52511e-05
3.73826e-08
2.39735e-11
-3.25826e-13
4.64526e-13
6.96806e-08
-2.54116e-06
-2.66395e-06
-2.67246e-06
-2.6351e-06
-1.35826e-06
1.64333e-11
-1.49917e-13
0
-7.14301e-12
-5.89776e-13
2.52067e-11
-3.16414e-11
7.9837e-12
1.35541e-11
7.81686e-12
-2.38187e-12
1.48971e-13
-5.36095e-12
-1.89016e-11
2.00484e-11
2.90917e-13
1.17243e-11
-7.9605e-12
-2.22485e-11
2.94762e-13
-1.72678e-11
1.4895e-13
-2.88364e-11
-6.53376e-11
-1.17035e-12
1.68466e-13
3.8689e-11
-1.8425e-13
1.83821e-11
3.08401e-13
1.61553e-11
-2.13101e-11
-2.37031e-11
4.04844e-11
-2.24567e-11
8.55027e-11
-4.01564e-11
-1.58728e-12
-2.92524e-13
4.94613e-11
6.03545e-13
-4.37716e-13
-2.47529e-13
5.52363e-11
2.48889e-11
8.16792e-13
2.09133e-11
-1.42497e-13
-5.64129e-11
-9.49398e-13
-3.84177e-11
7.77308e-14
2.6919e-13
-2.00162e-13
2.42354e-13
3.90097e-11
-1.96579e-11
-2.0544e-11
4.51547e-11
3.33849e-12
-6.75478e-12
-3.11979e-11
3.4903e-13
-4.47549e-11
-7.8685e-11
6.00471e-11
2.00779e-11
2.01553e-11
2.88377e-13
-3.99752e-11
-1.78437e-11
-2.97663e-11
1.47994e-11
-7.28993e-12
-2.93627e-11
-5.41976e-11
3.14325e-11
-5.95753e-13
-3.19911e-11
-4.4057e-11
-7.27021e-12
9.8411e-12
8.39534e-12
-2.90952e-13
-4.67284e-11
-1.77125e-11
1.48958e-13
-1.48902e-13
3.31843e-11
-3.49185e-11
7.26523e-13
3.18008e-11
-2.32712e-11
1.27838e-11
-4.41957e-13
7.14439e-12
-2.17449e-11
-1.25678e-13
1.73519e-11
-2.80116e-11
-2.98077e-13
3.12354e-11
2.09352e-13
1.33463e-11
-4.19027e-11
1.88999e-12
-3.48937e-11
2.23237e-13
1.19158e-12
3.36234e-13
-1.39957e-12
2.55572e-11
1.82152e-12
-2.88313e-13
3.19694e-11
-2.11366e-12
2.12378e-11
3.13255e-11
1.08604e-12
-2.90549e-12
-4.13006e-11
3.42727e-11
-9.14683e-14
-2.11036e-13
5.89732e-13
9.06187e-11
-3.63861e-13
-2.07994e-12
8.09648e-15
7.63298e-11
-4.93146e-11
-2.77017e-11
-9.63191e-13
-8.39946e-13
1.16822e-11
-4.23698e-13
9.52975e-13
-3.70037e-11
-8.8279e-13
8.75811e-11
-2.85741e-11
4.24672e-12
1.11137e-12
3.52416e-13
1.19125e-10
9.64913e-12
-4.22508e-11
-6.44903e-11
-1.35003e-11
1.16762e-11
1.66501e-11
-1.32196e-13
7.14829e-12
2.97563e-13
-1.48763e-11
1.59788e-12
7.51543e-12
1.30092e-11
-8.71871e-13
4.05169e-11
-8.92898e-13
2.38305e-11
0
5.95208e-13
8.54477e-12
2.39713e-11
4.33547e-13
-1.44507e-13
-4.18301e-11
2.66617e-11
1.04181e-12
-4.46793e-13
5.58469e-13
7.79856e-13
-2.68727e-12
-8.48562e-14
-5.09088e-11
-1.33822e-14
-8.88681e-12
2.71039e-11
-1.93663e-12
-1.83384e-13
-1.65379e-11
0
-3.14442e-11
4.08525e-14
7.04275e-11
8.30736e-11
-1.98197e-12
7.20131e-13
0
-2.98506e-11
-9.51684e-14
4.79754e-13
1.33672e-11
1.40836e-13
-2.25597e-11
1.62412e-11
-4.47838e-11
1.20343e-10
-4.28893e-13
2.93436e-11
1.04428e-13
4.24002e-11
5.07893e-13
1.49839e-13
2.23011e-11
-2.62914e-11
1.90613e-12
2.57357e-13
-2.69529e-13
6.5311e-13
7.76945e-14
8.83221e-13
-7.9788e-11
7.29344e-13
-2.7584e-11
2.66075e-11
3.69579e-15
-1.54534e-11
3.91017e-11
-5.05559e-12
7.34117e-13
2.91805e-13
6.68908e-13
-4.37241e-13
-8.77257e-13
1.4891e-13
-1.48773e-13
4.09405e-11
3.09329e-11
-3.74229e-11
9.53679e-12
-8.2788e-12
-2.94576e-13
-1.488e-13
2.68076e-11
4.46681e-13
-6.99392e-12
0
-2.90671e-13
-2.89151e-13
-8.24023e-12
2.46983e-12
-1.0312e-12
2.45565e-11
6.10622e-12
4.39595e-13
6.09361e-13
1.84086e-11
4.6756e-11
-2.6393e-13
1.64236e-11
9.13314e-13
1.37918e-12
1.3872e-11
-1.38501e-11
2.6605e-11
2.97772e-13
-9.26289e-11
-6.25055e-11
-9.8325e-11
2.82778e-13
-3.84303e-12
-8.42685e-11
5.25402e-11
4.40142e-14
2.00426e-11
5.17527e-13
-9.23931e-11
-1.13376e-10
1.99405e-11
-2.64629e-11
3.67762e-11
-2.94938e-12
6.21574e-11
-5.92186e-14
-1.91198e-11
6.82942e-12
8.95094e-11
9.20028e-13
-1.18743e-14
-1.1751e-13
-4.39662e-11
-3.06912e-13
-9.98363e-13
2.27056e-14
4.37472e-14
-1.00561e-12
4.09203e-13
-3.89421e-11
-1.94791e-13
-7.69707e-14
-8.55776e-13
-4.66249e-11
-1.6062e-11
-2.9082e-11
-5.87161e-13
-4.87252e-11
-2.98666e-11
4.07079e-11
-2.75319e-11
-1.4891e-13
-4.46322e-13
7.36415e-12
8.86113e-12
7.95006e-12
0
8.28032e-12
-4.41876e-13
-2.23203e-12
-2.69571e-11
0
0
-2.94827e-13
2.91028e-13
6.66225e-12
-6.66185e-12
1.4547e-13
8.54809e-12
6.84663e-12
1.48946e-13
-5.08477e-15
5.67092e-13
2.0415e-11
-4.66053e-11
-1.36422e-11
-8.92521e-13
-8.17122e-14
1.06847e-12
4.92251e-11
-8.21086e-14
-2.17954e-11
3.84712e-13
2.28296e-12
-3.3088e-11
1.9507e-13
-3.31784e-11
-2.59258e-13
-2.34681e-11
-4.82751e-11
-2.40401e-11
-5.83176e-13
2.31752e-13
-2.27174e-10
3.51613e-13
-2.35802e-14
2.1832e-11
-4.07025e-13
-9.31305e-11
-2.47927e-13
1.99916e-11
2.41565e-13
-2.51122e-13
-1.32513e-13
7.20731e-14
8.20225e-15
-2.40326e-11
1.95742e-12
-6.83467e-13
-3.41524e-14
3.98825e-12
2.3609e-13
8.85452e-13
3.69379e-12
-7.45822e-11
-2.556e-13
2.39638e-11
-2.02886e-13
2.84429e-11
-7.98583e-13
-3.48941e-11
1.89087e-11
1.36977e-11
1.31665e-12
7.73726e-11
-2.83436e-11
1.48925e-13
1.48788e-12
5.74667e-12
5.81811e-13
-1.92588e-11
-2.86712e-11
7.27251e-13
7.36774e-12
-3.57168e-12
-2.84497e-11
-2.39781e-11
2.97705e-13
-2.95036e-13
0
0
-6.24511e-12
2.91569e-13
1.47512e-13
-3.14152e-11
2.97947e-13
-2.7974e-12
2.59745e-14
1.85359e-13
4.1011e-13
-3.80113e-13
-1.16005e-12
-2.33813e-12
-5.49265e-13
1.66981e-11
-1.66955e-13
2.38847e-11
8.92472e-13
-1.12302e-10
-3.15466e-11
2.27013e-11
1.93746e-12
4.07105e-12
-3.8836e-11
-7.0659e-11
-4.73315e-13
2.08627e-12
5.14347e-13
-1.77247e-12
1.87675e-11
-3.3882e-14
-5.13538e-13
-5.29016e-11
-4.10308e-13
5.2834e-13
4.55303e-13
6.38801e-13
5.2904e-11
-8.82276e-11
-8.88252e-14
2.10032e-13
4.61033e-13
4.4916e-13
-3.75836e-14
5.46712e-11
-4.37023e-13
6.65868e-13
4.98212e-13
-7.05189e-13
-5.48276e-11
5.58865e-14
-1.57965e-13
2.24552e-13
-1.20691e-12
4.23456e-12
-5.30631e-12
1.60947e-11
-1.76188e-12
1.64342e-11
1.81891e-13
-3.17436e-14
-5.9584e-13
4.04845e-11
1.32737e-12
-2.44895e-11
-7.26073e-12
0
6.7049e-12
2.04996e-11
1.07185e-11
-2.97966e-13
2.13003e-11
1.48879e-13
2.95043e-12
-1.45701e-13
1.00097e-11
-7.1082e-12
-1.45683e-13
5.60537e-12
-6.84972e-12
4.32059e-12
5.85777e-14
2.31381e-13
-4.64659e-11
6.10721e-11
2.54293e-13
2.55056e-13
2.13357e-13
-5.12821e-11
-1.68722e-13
4.83256e-12
9.30306e-12
2.97807e-13
7.04953e-11
-4.48121e-11
-5.52608e-11
5.59321e-11
-3.12468e-12
7.77821e-11
4.01437e-11
4.48765e-13
-3.64183e-13
3.79148e-11
-2.59489e-12
8.02925e-13
-2.76087e-13
-3.13939e-11
-3.64819e-11
-2.69449e-12
-4.0417e-11
3.22843e-11
8.30134e-14
-5.13691e-14
7.84949e-11
-7.53096e-13
-4.48743e-13
-1.40848e-13
-1.88638e-13
1.00551e-13
1.14723e-15
-3.23627e-11
4.66452e-13
-5.89111e-13
8.20591e-13
5.85769e-13
8.05991e-13
2.0682e-13
3.37337e-13
3.93569e-12
-1.73605e-11
1.90901e-11
-2.65795e-11
1.32897e-11
5.12497e-13
4.33748e-13
5.04424e-14
-1.48979e-13
-2.24789e-11
-2.44802e-11
7.71939e-12
-7.25208e-13
0
-6.99094e-12
1.47472e-13
1.48896e-12
-1.49003e-13
3.47055e-11
6.40072e-12
-7.6658e-12
-2.64671e-11
-1.852e-11
-1.67839e-11
2.44308e-11
-4.52562e-11
5.65727e-12
0
1.08277e-13
-7.29237e-13
-1.0619e-12
1.44872e-11
1.57381e-11
7.27462e-11
1.13896e-11
3.74195e-11
1.74814e-11
7.1584e-13
-3.46724e-11
8.9366e-13
-8.85359e-14
-9.56922e-13
2.87721e-12
-7.5795e-11
-3.11525e-12
-5.36421e-11
-3.01964e-13
6.50433e-14
-5.30345e-13
3.83638e-13
-1.33214e-11
5.10142e-12
-9.51396e-13
-2.33692e-11
2.73739e-13
-3.68269e-13
-5.49165e-11
5.15334e-12
5.22503e-13
-3.33585e-13
-2.13491e-12
5.13939e-11
-3.22681e-13
7.78809e-13
3.64946e-14
-1.34258e-12
1.44019e-13
-3.74172e-11
1.37053e-13
1.15898e-12
9.88774e-14
-8.48561e-12
-2.67066e-11
2.24757e-11
-4.60313e-11
1.8696e-11
2.5852e-11
1.3388e-11
-1.86894e-11
-1.19499e-11
4.67766e-11
1.0086e-11
3.29791e-11
1.48969e-13
7.88832e-12
-8.10452e-12
-4.47715e-11
-1.44661e-13
1.60574e-11
-7.26813e-12
-1.45888e-11
0
2.75648e-11
1.48964e-13
1.48847e-13
-2.84411e-11
3.45871e-11
1.44573e-13
1.14216e-11
-6.6855e-12
2.41701e-11
6.55033e-12
4.46931e-13
1.34587e-13
-1.9236e-14
-2.72844e-11
6.30077e-11
2.91445e-13
2.52506e-11
6.54753e-13
-3.67652e-11
4.03382e-11
2.12997e-11
-1.07343e-13
5.95523e-13
-3.69237e-11
-4.97017e-11
1.86745e-12
-8.72275e-11
4.00796e-11
1.19868e-10
-3.89674e-11
-1.46744e-13
1.33391e-13
-3.60111e-13
-2.31951e-12
3.92936e-13
-2.11958e-11
-1.59249e-13
-4.58858e-13
7.54934e-11
-3.75221e-11
8.89356e-14
-2.51679e-11
8.54293e-13
1.17413e-10
3.79102e-11
-3.07115e-11
1.55005e-13
-2.13746e-13
2.18892e-12
-4.84347e-13
-1.88058e-11
2.56031e-11
3.93815e-13
1.67261e-12
-8.18755e-13
3.10313e-11
-1.14005e-13
8.1649e-13
-5.30132e-11
-3.42338e-11
1.28929e-11
3.66976e-13
-2.85211e-11
8.98649e-13
-7.57841e-13
1.93529e-11
0
-8.92979e-13
1.92994e-11
9.29802e-12
4.3654e-11
-2.74644e-12
1.36564e-11
3.68319e-11
7.74089e-12
-1.49011e-13
-3.4275e-12
-7.74277e-12
8.54948e-12
1.45375e-13
1.44649e-13
-3.7466e-11
2.90812e-13
9.58299e-12
2.97831e-12
3.12953e-11
1.98053e-11
-2.78881e-13
-1.71526e-11
-3.36864e-13
-6.33555e-12
-1.33043e-11
2.41001e-12
-2.21007e-12
4.65312e-11
2.54424e-13
4.58018e-11
5.95534e-13
-1.81883e-12
-1.99312e-12
4.72397e-12
-8.7639e-11
2.31029e-11
-5.04001e-12
-9.57498e-11
-3.05474e-11
3.45707e-13
4.05396e-13
0
4.85264e-11
1.75303e-13
-2.21503e-11
7.28252e-13
5.89879e-13
-2.32301e-13
1.83722e-11
-2.82535e-13
-7.85911e-13
5.77452e-12
2.52226e-13
-1.82242e-13
2.43693e-13
5.53689e-14
8.35025e-11
-1.14659e-12
6.50841e-12
3.35775e-13
-7.12858e-12
1.51532e-12
2.04911e-12
3.66325e-11
-6.76182e-14
6.01807e-11
-6.52107e-12
1.67907e-11
2.16855e-11
-4.49225e-11
-3.20976e-11
-1.36014e-11
-1.8942e-13
-2.55963e-11
0
-2.02468e-11
-6.18986e-12
-9.59325e-12
3.16739e-11
1.41736e-11
1.88953e-12
-1.47378e-13
-3.48444e-11
-3.71174e-11
-1.49135e-13
-1.16246e-11
7.97141e-12
7.2858e-13
-6.96315e-12
6.67343e-12
-1.45758e-13
8.12098e-12
1.49043e-13
2.2668e-11
2.06363e-11
-6.465e-12
-1.86246e-13
1.58669e-13
-5.89281e-13
5.41928e-13
-8.86462e-13
-3.15502e-11
-1.30084e-13
2.27901e-11
-5.10354e-14
5.62177e-11
-2.16379e-12
-2.90747e-12
-7.1117e-14
4.82395e-11
1.11364e-12
1.68285e-11
2.71786e-12
-9.05152e-14
8.14238e-12
-5.60237e-11
-1.73889e-11
-5.29919e-13
2.53069e-11
-3.2092e-13
6.71498e-13
-2.11706e-13
5.46356e-11
-5.49255e-13
-5.738e-11
-1.26283e-14
7.86872e-11
-5.56704e-11
-4.82513e-11
3.62691e-13
2.3892e-13
5.52848e-13
-1.74381e-13
2.81795e-12
2.99128e-11
-6.01382e-11
2.48109e-12
6.35898e-13
6.49216e-11
9.70446e-14
-5.2625e-12
-3.8222e-11
-1.42334e-11
-5.84618e-11
1.66402e-11
-1.38451e-12
-4.46132e-11
-2.52335e-13
-1.75245e-12
-5.96477e-13
1.11752e-11
-1.16602e-11
1.1656e-12
8.70291e-13
-1.02984e-11
2.91388e-13
8.41271e-12
1.37113e-11
-4.17686e-11
2.98535e-13
1.94048e-12
0
7.77987e-12
-8.34277e-12
-2.92744e-13
-4.40469e-13
-9.04112e-12
-8.50808e-12
3.13441e-12
1.36351e-13
5.28089e-11
-1.00812e-12
4.63047e-11
1.63646e-11
-1.12482e-12
3.22412e-13
-1.88838e-11
-4.52229e-12
2.78843e-11
-1.42724e-11
-5.3414e-11
-6.88882e-13
-6.09422e-11
-6.09808e-12
4.37756e-12
1.30608e-13
1.14766e-12
-2.11115e-11
2.48178e-11
-1.25349e-12
5.61037e-11
9.2512e-11
2.28069e-11
-3.78407e-14
1.40827e-11
-1.17468e-10
-6.26861e-13
-3.92231e-11
8.22374e-14
6.89592e-13
6.20249e-11
-1.27095e-10
3.91696e-11
2.31212e-13
5.47154e-13
5.71108e-13
1.58984e-10
1.49545e-13
-1.92132e-13
-2.06756e-11
8.6446e-14
1.69943e-12
5.40736e-11
6.22444e-15
1.18678e-11
5.39223e-11
-4.19184e-11
-4.18991e-11
0
-1.44855e-11
-1.31016e-12
1.11165e-12
-1.36232e-11
-6.79453e-14
3.25341e-11
-8.80439e-12
1.03725e-12
4.44736e-11
-9.36627e-12
-1.46347e-13
-9.98033e-12
4.44505e-13
9.40332e-12
0
0
-8.66025e-12
-3.64626e-11
-1.4822e-13
8.88429e-12
0
2.68307e-11
5.95334e-13
7.61456e-12
-1.49211e-13
-1.76173e-13
5.68657e-13
-2.72805e-11
-2.62413e-13
-4.81463e-12
-1.08985e-12
5.41505e-11
1.29136e-11
4.75583e-12
1.97634e-11
-1.98257e-11
1.19492e-12
-1.39862e-13
2.98821e-11
-2.70957e-11
3.89522e-11
1.51097e-11
-1.71228e-11
-4.53552e-12
1.65652e-13
1.46209e-14
-8.64228e-14
-1.50693e-12
4.27661e-11
-1.96325e-11
-1.4705e-11
4.01221e-11
-1.05631e-10
-4.34001e-11
2.16567e-11
-4.3395e-13
-4.27989e-11
1.04722e-11
1.54292e-11
-2.79804e-14
3.41603e-11
1.67386e-12
-8.85067e-11
3.46735e-11
-2.22359e-11
-2.58375e-11
1.68317e-14
2.8136e-12
-5.02165e-11
-2.36424e-11
4.98209e-13
5.75312e-14
0
1.19585e-11
1.88862e-11
-1.80617e-11
2.01739e-13
-1.78912e-11
-1.10693e-13
7.95475e-13
2.61078e-11
0
-2.82703e-11
0
1.48054e-13
-6.21819e-12
0
2.97592e-13
1.04504e-12
2.35787e-11
1.92063e-11
4.18364e-11
6.18205e-11
9.04891e-12
6.52443e-12
1.27532e-11
8.30744e-12
-2.63026e-11
-7.4439e-12
-1.9055e-11
1.95524e-11
6.55807e-11
2.47538e-11
1.78127e-13
-1.29704e-11
-3.33854e-13
-1.82559e-11
-4.58333e-11
1.01951e-13
1.96632e-11
-9.66528e-14
7.31398e-14
-5.8248e-11
-2.53473e-11
2.95714e-11
-6.63186e-11
1.44973e-11
2.58764e-11
2.97139e-13
1.90195e-11
1.83923e-13
-2.96371e-13
5.73609e-11
6.04312e-11
-1.19237e-11
-7.40437e-11
-6.75482e-11
1.05173e-10
-5.74103e-13
5.3389e-12
-9.88486e-14
3.94652e-11
-9.79177e-13
-4.62797e-11
5.40738e-12
4.92959e-11
3.95592e-11
6.5371e-11
3.34566e-11
2.80784e-13
6.52112e-14
-3.98112e-11
3.11025e-13
-4.65176e-11
-6.18104e-12
-2.22453e-13
-6.81448e-11
-9.64729e-11
-3.40206e-11
-2.47836e-11
1.53729e-12
5.17333e-13
-5.80456e-11
8.83979e-11
-9.10646e-13
-6.4e-11
6.73207e-11
7.12054e-13
-5.05002e-11
1.36556e-12
-4.03599e-13
-5.23427e-11
7.81966e-11
-5.30269e-11
8.17147e-11
8.80884e-11
1.1026e-10
-9.6167e-13
5.14325e-11
-1.96848e-13
-1.63486e-12
1.16937e-11
-4.15168e-11
-3.17814e-11
-2.82175e-12
-9.26613e-11
5.02315e-11
2.43735e-13
-3.00538e-13
-1.68896e-12
-1.48846e-13
4.1673e-12
-1.33709e-12
7.1197e-12
3.78083e-11
-1.18619e-12
3.98992e-11
6.53744e-12
-2.08395e-12
0
4.45413e-13
2.53723e-11
-2.51888e-11
0
1.43616e-11
5.06115e-11
-2.73831e-11
-4.31376e-11
-5.4902e-11
-4.72097e-11
-2.72622e-13
1.12326e-13
2.75479e-11
-7.43188e-12
5.21324e-12
9.22348e-12
8.61851e-12
-3.48976e-11
-1.99642e-11
-2.36382e-11
-6.56493e-13
-2.50754e-11
2.4644e-11
4.06112e-13
-5.8361e-11
-1.90816e-11
3.42332e-11
-1.19135e-14
3.45451e-11
1.44454e-12
1.86393e-13
-1.62601e-13
4.60525e-11
-1.12372e-13
5.69391e-11
-6.23094e-13
5.89376e-11
-4.18303e-13
6.19953e-13
1.88604e-13
-2.51905e-11
2.64202e-13
-4.67741e-11
3.4003e-11
1.18971e-11
-3.51365e-12
-1.11181e-10
-1.29457e-12
2.27787e-11
2.25567e-11
2.2145e-13
2.61441e-11
1.29361e-13
-3.12379e-11
9.35359e-12
6.61706e-12
5.18954e-11
8.82313e-13
-1.27567e-13
1.52897e-14
4.90441e-11
-8.70457e-12
-9.8204e-14
-1.49758e-11
-3.90133e-11
9.76508e-13
-8.73275e-13
3.02046e-13
-2.98681e-11
2.78543e-13
-1.62999e-13
-3.53449e-11
3.49208e-13
4.13348e-11
-4.17435e-11
-1.17674e-12
1.39936e-12
9.4437e-14
-3.57649e-13
2.68494e-13
-4.87281e-11
6.40537e-12
-4.18362e-14
7.75813e-12
4.16101e-11
-8.07863e-12
2.54445e-12
-1.00801e-11
-3.89826e-11
1.46603e-12
-2.47904e-11
0
-3.85345e-12
-1.92403e-11
2.97575e-11
2.44159e-11
2.95997e-13
2.62227e-11
2.96721e-12
1.18771e-12
-1.18562e-12
-4.44367e-13
0
2.66282e-12
0
1.47916e-13
-1.47938e-13
-1.48023e-13
-5.92489e-13
-5.92785e-13
3.8287e-12
-4.6892e-13
1.3001e-13
2.75852e-12
-2.90684e-14
2.60102e-11
8.13333e-14
-1.9402e-11
-6.90278e-13
-5.91183e-13
-2.06127e-11
2.08033e-11
-8.2628e-14
-2.64861e-12
-2.8165e-11
-9.95006e-14
9.80391e-14
1.03518e-13
3.67358e-13
-4.41352e-14
-5.03313e-12
-2.83171e-11
4.24935e-15
-7.21154e-16
5.83898e-13
-2.60892e-11
-1.55384e-13
1.88138e-11
-2.60799e-11
-1.29971e-13
2.0744e-11
-2.01343e-11
-2.47674e-11
2.92734e-12
2.82699e-11
3.47768e-13
-1.81904e-11
1.21157e-13
-2.06556e-13
1.20187e-13
7.71371e-14
2.83679e-11
-3.09925e-11
-8.53407e-14
-1.17123e-12
5.43187e-14
1.88463e-11
5.75791e-13
2.62881e-11
9.624e-14
2.0371e-11
-4.76118e-13
2.45049e-11
1.40973e-13
-3.29725e-14
-2.1572e-13
-1.12614e-11
-3.57972e-13
-8.96617e-14
7.33331e-14
-2.24062e-13
-6.72405e-14
3.1527e-11
2.20848e-11
6.01638e-13
-6.07288e-13
1.26179e-11
2.58672e-13
2.65224e-13
5.03785e-13
-2.00031e-11
1.09464e-14
-4.09932e-13
-1.46953e-13
-7.09171e-14
1.05121e-13
3.003e-11
-4.5025e-14
-2.12049e-13
-3.13801e-13
-1.48188e-13
-1.48109e-13
-7.40029e-13
-2.2041e-11
1.47915e-13
1.47906e-13
-3.06199e-11
-4.43998e-13
0
-2.96396e-13
0
1.48005e-13
-1.42029e-11
1.93758e-11
-2.95791e-13
-1.47896e-13
5.02894e-12
2.05653e-11
5.92028e-13
1.48051e-13
-1.98882e-11
-2.87222e-14
-1.35989e-11
3.8618e-15
-2.03783e-13
-2.13528e-13
1.10949e-13
6.16108e-12
-1.83434e-11
3.14069e-13
-1.94578e-11
-2.78231e-14
3.76758e-13
-4.43383e-11
-1.37623e-11
-3.32278e-12
-8.54768e-12
-2.5341e-11
8.9544e-14
-1.05533e-14
2.04775e-11
-1.98868e-11
-2.08244e-11
-8.09115e-14
2.59579e-11
3.51226e-11
-4.48071e-13
1.36216e-11
1.91573e-11
1.27934e-12
1.94274e-11
-1.20638e-13
-1.55854e-13
2.49265e-11
1.41793e-11
3.74418e-12
3.29827e-12
2.6215e-11
6.21326e-14
-5.16008e-13
-6.66943e-13
-6.16707e-12
1.7329e-12
1.89166e-13
-2.61165e-11
-6.07583e-11
-2.61016e-11
1.13625e-12
-2.04729e-11
-1.00166e-12
-1.90803e-13
1.17822e-13
-4.48007e-14
-9.40372e-14
2.86887e-13
-5.13136e-13
-3.56611e-13
-1.16166e-12
1.7519e-13
2.08281e-11
2.01556e-13
4.62711e-13
-4.8834e-12
-9.52382e-15
2.7974e-11
2.71498e-11
2.68249e-11
-1.88277e-13
2.04305e-11
6.56182e-14
5.22382e-14
1.20709e-13
-7.53007e-13
9.28943e-14
-7.92222e-13
-2.23535e-11
-3.82135e-13
-2.5112e-11
3.13631e-11
-2.05975e-11
-1.48043e-13
2.54554e-11
2.36702e-11
-2.95797e-13
-2.79508e-11
-2.24789e-11
-4.437e-13
-2.48541e-11
3.12284e-11
0
-4.67585e-11
-2.67781e-11
7.3958e-13
0
5.91557e-13
-2.30709e-11
0
5.91681e-13
1.99731e-11
2.95944e-13
-4.07638e-11
-2.21999e-11
1.99395e-13
-1.85388e-11
-1.85267e-11
-1.87653e-11
-2.0228e-13
2.63623e-11
3.514e-14
3.89282e-13
2.5058e-11
2.69137e-11
-5.91597e-13
-5.78718e-13
-2.77151e-11
-6.60383e-12
2.41866e-14
2.48001e-13
-1.98863e-11
5.40958e-13
-4.65287e-12
2.23831e-11
-3.54495e-13
1.81764e-11
-6.05954e-12
1.92132e-11
-2.56277e-13
-4.77344e-11
1.88397e-11
3.30999e-12
1.08712e-12
2.47645e-11
-5.15926e-14
-1.81994e-14
2.76569e-11
2.96597e-11
-2.12533e-14
-1.37237e-13
1.40722e-13
1.83572e-11
2.52397e-11
1.91849e-13
2.1425e-11
2.66398e-13
2.45682e-11
-1.15659e-13
-4.25174e-13
2.1815e-11
5.80622e-12
-3.33678e-12
-3.41585e-13
-2.4852e-11
-1.70778e-13
-3.58482e-14
-2.64095e-11
-1.35434e-12
5.32557e-14
-8.02125e-13
-5.30439e-13
-1.8983e-11
2.39325e-13
-1.65627e-13
-2.09805e-11
1.20054e-13
4.83541e-13
7.63568e-14
2.28796e-13
2.2006e-13
-4.53092e-11
-2.48501e-15
-1.78021e-13
2.46167e-13
-2.05921e-13
-9.07357e-14
2.61079e-11
1.11905e-12
2.9318e-12
4.94726e-13
6.0881e-13
1.97012e-14
0
4.43819e-13
1.4791e-13
2.95779e-13
0
0
2.80996e-12
0
2.02686e-11
2.95943e-13
-9.83702e-12
-6.65729e-13
7.39659e-14
-3.69593e-13
2.05551e-11
-5.02791e-12
-5.17485e-13
-7.39032e-14
-2.2181e-13
7.37721e-14
-9.53921e-12
-1.40432e-12
7.39413e-14
-1.98896e-11
-8.87269e-13
-2.514e-11
-2.09257e-11
-7.3885e-14
7.42186e-14
2.22501e-13
2.21045e-13
5.16808e-13
-2.95708e-13
1.48213e-13
-2.18879e-11
4.88055e-12
7.39661e-13