/*--------------------------------*- C++ -*----------------------------------*\
  =========                 |
  \\      /  F ield         | OpenFOAM: The Open Source CFD Toolbox
   \\    /   O peration     | Website:  https://openfoam.org
    \\  /    A nd           | Version:  10
     \\/     M anipulation  |
\*---------------------------------------------------------------------------*/
FoamFile
{
    format      ascii;
    class       volScalarField;
    location    "1.1";
    object      gradTz;
}
// * * * * * * * * * * * * * * * * * * * * * * * * * * * * * * * * * * * * * //

dimensions      [0 -1 0 1 0 0 0];

internalField   nonuniform List<scalar> 
47104
(
5.96396e-13
7.45367e-13
4.46795e-13
-3.71779e-12
1.48558e-13
0
-1.4871e-13
-1.48928e-13
-4.47202e-13
-1.49091e-13
-2.9813e-13
-1.48935e-13
-4.75466e-11
-2.41273e-11
1.03349e-12
-1.47641e-13
1.48019e-12
2.45158e-11
-3.09774e-11
2.74267e-11
-1.66788e-11
2.9715e-13
9.45383e-12
-8.77998e-12
-1.45444e-13
-1.70169e-11
9.36525e-12
1.47714e-13
-2.97142e-13
-1.04238e-12
-2.67656e-11
-8.88062e-13
0
-9.93348e-12
-2.08042e-11
2.18016e-11
-2.87925e-13
1.31694e-12
-2.70852e-11
-2.97384e-11
2.97099e-13
0
1.13443e-11
1.28244e-12
1.40674e-13
-6.75234e-12
-2.99233e-12
0
2.95259e-13
-3.11938e-11
-2.59972e-11
0
-2.03618e-12
1.42493e-13
8.44038e-12
1.40673e-13
1.33942e-11
-1.45438e-13
-6.20053e-11
-2.65896e-11
-2.5876e-11
1.18416e-11
-9.80421e-12
-2.82163e-11
2.70731e-11
5.6996e-13
0
1.17062e-11
-3.43387e-11
2.72121e-11
0
-5.94332e-13
1.2851e-11
8.77938e-12
5.78823e-11
-2.90868e-13
1.46325e-13
-4.43135e-13
1.48576e-13
-7.44609e-13
0
2.66586e-11
1.27768e-11
-7.4e-13
-2.95246e-13
-5.90501e-13
-8.88035e-13
-3.04573e-11
-1.4893e-13
-5.60489e-11
0
-2.98113e-13
-7.44526e-13
-4.4605e-13
1.48533e-13
-1.26256e-11
-2.70619e-11
7.44574e-13
2.6235e-11
-1.49094e-13
5.58629e-13
8.76985e-13
3.46448e-11
2.49209e-11
-1.1265e-13
4.84061e-13
0
0
-5.97376e-13
-3.17536e-13
-1.91505e-14
-1.49632e-12
2.6151e-11
6.04301e-12
-2.7866e-12
-7.44961e-13
-4.91416e-11
-8.61394e-12
1.88156e-11
2.74571e-11
-6.8681e-12
3.85193e-13
-2.02621e-11
-9.19344e-12
0
2.95676e-13
-5.35629e-11
5.94152e-13
-1.04097e-11
-7.46501e-13
-2.61112e-11
1.02478e-11
-7.82887e-11
-2.63504e-12
1.94719e-11
-1.88739e-11
5.82403e-13
4.80229e-11
2.87751e-11
-5.96804e-13
0
2.64726e-12
-1.18314e-12
0
-5.97958e-11
-3.15801e-12
-5.7094e-11
-2.93228e-13
-1.26999e-13
1.49159e-13
-4.47528e-13
2.27941e-13
5.91341e-13
2.90365e-13
-6.71792e-11
-2.00676e-12
-9.21604e-12
5.50934e-11
-1.72293e-11
0
5.9693e-13
-5.0296e-11
2.66334e-12
5.82398e-13
-5.27682e-11
-5.75999e-13
4.01891e-11
8.80686e-13
-8.53043e-12
-2.98429e-13
0
-8.37864e-12
-8.91228e-13
-8.8384e-13
-3.0495e-11
2.93044e-13
2.93557e-13
2.95743e-13
4.84227e-12
-7.46597e-13
2.98711e-13
-1.00626e-11
-3.57291e-12
-2.34965e-11
-8.64171e-12
1.53867e-11
-8.18129e-12
-1.71646e-11
-1.16336e-11
-2.98688e-11
-1.9143e-14
-3.04814e-11
3.55312e-11
1.4919e-13
-2.6184e-13
2.89539e-11
-9.13406e-13
7.46544e-13
2.63216e-11
3.82396e-14
2.7788e-11
1.32882e-13
2.3917e-12
4.33756e-12
5.31631e-14
-3.79918e-11
-5.47561e-13
4.27984e-12
4.26612e-13
1.94487e-14
-2.32154e-13
3.52095e-11
4.39229e-11
1.52522e-11
-5.03578e-11
1.49957e-12
-5.47849e-11
-3.46454e-11
4.20761e-11
-3.19661e-11
1.58721e-11
7.02083e-11
-1.51962e-10
1.29566e-10
1.45207e-10
1.34474e-10
1.9699e-10
1.08314e-10
-5.73658e-11
8.67061e-14
1.92334e-13
5.98057e-13
2.11296e-10
6.03823e-06
1.82615e-06
1.87399e-06
1.53413e-06
1.05077e-06
2.13862e-11
1.11104e-12
-4.10689e-13
0
1.26939e-10
1.82385e-06
-2.34178e-05
-2.39907e-05
-2.09416e-05
1.37122e-06
7.41279e-11
3.1014e-11
-3.07185e-12
-5.99818e-13
1.59782e-10
1.87363e-06
-2.39907e-05
-2.46053e-05
-2.13802e-05
1.38821e-06
9.81398e-11
2.62458e-11
2.62153e-11
-2.57465e-11
1.91829e-10
1.535e-06
-2.09419e-05
-2.13805e-05
-1.8985e-05
1.32914e-06
5.70674e-11
-2.70629e-11
2.55103e-11
6.6307e-11
9.83283e-11
1.05079e-06
1.37132e-06
1.38825e-06
1.3291e-06
-6.28128e-08
-6.01276e-13
-3.13855e-13
1.25456e-13
-3.55129e-11
-1.08119e-11
6.68657e-11
4.87106e-11
2.12022e-11
3.68352e-11
1.65343e-11
5.62344e-11
2.62762e-11
1.68665e-13
-6.20275e-13
3.01317e-11
4.25059e-13
2.61046e-11
4.09408e-11
2.69253e-11
-6.891e-14
3.195e-11
4.0866e-13
5.95397e-13
-3.43013e-13
-3.40581e-11
-2.51257e-11
6.56399e-13
-5.61406e-13
7.31562e-13
-2.76008e-11
3.64204e-13
0
-3.13148e-11
-6.56545e-11
-1.68263e-13
-2.52225e-10
-2.53615e-10
-2.77545e-10
-3.7063e-10
-7.94827e-11
-5.46106e-11
-4.25385e-12
-2.84849e-11
-1.23249e-11
3.12699e-08
-3.87797e-05
-3.49112e-05
-3.47364e-05
-3.51018e-05
-3.81706e-05
-1.33528e-09
-3.91648e-11
5.61546e-13
-2.28933e-10
-3.87905e-05
-224.943
-292.833
-293.463
-291.946
-1.81743
1.20968e-07
2.1086e-13
6.57512e-13
-2.71953e-10
-3.49108e-05
-292.832
-404.019
-405.494
-401.759
-3.31025
-2.06504e-08
1.42139e-12
9.4831e-13
-3.33824e-10
-3.47377e-05
-293.463
-405.494
-407.051
-403.158
-3.32436
-2.9542e-09
4.26728e-11
3.28719e-13
-2.83823e-10
-3.51115e-05
-291.946
-401.759
-403.158
-399.591
-3.30751
-6.54597e-08
5.7878e-13
2.01635e-13
-1.2953e-10
-3.81151e-05
-1.81746
-3.31027
-3.32437
-3.30752
-0.671566
2.67695e-07
3.88176e-13
-4.91412e-14
2.96842e-13
-1.43429e-09
1.2028e-07
-2.10994e-08
-4.19367e-09
-7.32937e-08
2.67489e-07
-5.68311e-11
-1.1968e-13
-2.97683e-13
3.03855e-11
-3.51312e-11
7.64304e-13
-2.52338e-11
9.67049e-14
4.07603e-11
-2.58984e-13
3.3587e-11
0
-2.78004e-11
2.77937e-12
-1.9096e-12
1.36863e-12
2.45904e-12
3.99933e-11
1.59566e-12
-4.37118e-12
-7.42217e-13
-1.93698e-14
-2.52409e-11
-1.48218e-12
3.06925e-12
8.31247e-09
1.87175e-08
1.87059e-08
1.78522e-08
-3.31263e-10
5.45037e-11
3.24772e-11
8.25027e-14
-5.68707e-11
-1.13764e-08
0.0151388
0.0298898
0.0300873
0.0294607
3.88316e-05
7.18598e-10
2.86291e-11
1.31296e-12
8.25224e-09
0.0151128
2.48781e-05
4.38835e-12
1.99818e-12
1.86329e-08
0.0298849
3.91105e-05
2.04942e-12
3.12012e-11
1.86994e-08
0.0300802
3.96663e-05
3.95184e-12
1.38227e-12
1.70732e-08
0.0291344
3.66876e-05
2.92681e-11
2.28234e-12
-6.62809e-10
3.56162e-05
-7.62039e-07
-4.09258e-12
1.30601e-11
2.96305e-13
8.04276e-10
2.48532e-05
3.91018e-05
3.95961e-05
3.48502e-05
-7.04778e-07
4.76778e-12
7.61631e-13
1.29189e-13
4.18101e-13
-2.9993e-11
3.15036e-11
-2.40608e-11
2.06372e-12
1.94627e-12
1.38487e-14
-1.95761e-12
0
1.22841e-12
-3.57874e-13
3.40908e-13
6.90622e-13
4.00145e-13
7.29701e-13
3.27691e-13
2.80749e-11
-2.75286e-13
-1.29363e-13
3.1211e-11
2.97265e-13
1.13612e-12
1.61022e-09
4.24797e-09
4.28434e-09
3.92186e-09
-3.91105e-11
-2.97749e-13
3.25062e-11
-4.88983e-12
1.7076e-12
-3.20669e-10
0.000603557
0.000953513
0.000927606
0.000941406
1.93897e-06
-7.93005e-11
3.92788e-11
2.44683e-13
1.50608e-09
0.000556667
1.43776e-06
1.48282e-13
7.59995e-13
4.20518e-09
0.00094682
2.53624e-06
-2.85967e-11
-3.88307e-11
4.36572e-09
0.00092993
2.64659e-06
-4.1483e-11
7.45469e-13
4.02587e-09
0.00150711
2.25271e-06
5.29349e-13
-5.04764e-14
1.01952e-11
0.000636077
-5.71414e-08
3.64994e-11
3.32862e-14
2.97643e-13
-3.66e-11
1.48023e-06
2.53993e-06
2.68585e-06
4.82913e-06
1.3813e-08
1.80239e-12
2.66448e-13
-9.03989e-14
-3.44612e-11
-6.56806e-13
-2.73843e-11
5.52883e-11
2.9151e-11
-3.90531e-11
-4.37378e-12
-3.33129e-11
-1.09867e-13
-6.33856e-13
-5.63725e-11
-3.54352e-13
-9.52645e-14
-2.50669e-13
3.07796e-11
-2.66117e-11
-2.75273e-13
6.79181e-13
7.43833e-13
2.5509e-11
-2.38232e-12
2.70342e-13
3.90981e-10
1.12731e-09
1.23505e-09
1.13916e-09
-1.61993e-10
5.25051e-11
1.92603e-14
4.27053e-13
-2.04361e-13
-6.7189e-10
0.000260527
0.00032854
0.000273828
0.000352661
4.5614e-07
3.03609e-11
-2.88901e-11
-4.5407e-13
-2.98303e-11
-7.71849e-05
2.14119e-07
5.23247e-11
-5.40694e-13
8.59548e-10
0.000258679
3.74615e-07
6.23203e-14
1.51609e-13
1.1492e-09
0.000276745
3.97556e-07
-1.22034e-12
-3.33446e-11
1.31269e-09
0.00049535
3.26546e-07
-2.7685e-11
-2.73886e-11
-1.44147e-10
1.23363e-06
-9.40305e-09
3.63651e-12
-1.30738e-11
-5.96606e-13
-1.77763e-11
2.16031e-07
3.75569e-07
4.18768e-07
6.92524e-07
-3.45206e-08
-1.50566e-12
-3.87768e-13
4.07502e-13
1.35995e-13
-2.73468e-11
-2.99319e-11
3.17607e-11
4.8343e-13
5.2824e-13
1.23504e-13
-2.96148e-11
-3.87757e-14
-5.95434e-13
4.72676e-12
-5.29504e-13
-9.741e-14
-6.38929e-12
-6.53391e-13
1.70964e-13
-7.64741e-13
2.27119e-13
0
9.74719e-14
4.17195e-12
-4.30619e-13
2.98484e-11
2.68771e-10
2.57843e-10
3.03753e-10
6.03466e-11
-1.03926e-10
-2.87229e-11
4.0203e-11
-5.2324e-11
1.21189e-10
0.000200869
0.000259891
0.000200129
0.000286019
-5.52502e-07
4.85685e-11
4.78214e-13
-2.09447e-13
-8.60753e-10
0.00438604
-1.62422e-08
1.77109e-13
-1.18837e-13
-2.37155e-11
-3.30624e-05
-4.64398e-08
2.82981e-11
6.71176e-11
2.80386e-10
0.00019901
-4.967e-08
2.83585e-11
-4.81419e-13
2.31535e-10
0.000293269
-4.34839e-08
-7.50729e-13
-2.17658e-13
7.66208e-11
-4.98579e-07
2.07295e-09
-3.62797e-11
1.45647e-13
-6.27124e-12
3.06047e-11
-2.30683e-08
-4.92166e-08
-1.09174e-07
-1.95978e-06
5.59072e-08
-9.03945e-13
-3.73173e-13
-1.48836e-13
3.406e-11
5.198e-13
2.84315e-11
-3.5829e-11
-2.8785e-11
-4.57445e-13
4.07921e-12
-5.4931e-13
-5.9548e-13
1.48904e-13
5.34982e-11
1.86499e-13
-3.27276e-11
-5.14245e-13
-3.17045e-11
2.59061e-11
-2.83817e-14
3.63708e-11
-5.9559e-13
-3.66139e-11
-7.21346e-11
3.4097e-13
-5.96414e-10
-1.86148e-09
-1.966e-09
-1.73599e-09
3.6945e-11
5.19705e-11
-4.80089e-13
-3.39988e-11
5.3862e-11
2.07846e-09
0.000123332
-7.31008e-05
-0.000152201
-2.59191e-05
-1.44007e-06
2.71589e-11
2.68577e-11
-2.84273e-11
2.52217e-10
-0.00139922
-1.28693e-06
7.42793e-12
-2.17675e-13
-1.60255e-09
0.000182087
-2.52431e-06
-5.2963e-13
-2.84859e-11
-1.88294e-09
-0.000145932
-2.62274e-06
-1.46598e-12
3.37648e-11
-1.67222e-09
-2.44123e-05
-2.18711e-06
-3.12346e-14
2.71192e-11
5.23338e-11
-1.1877e-06
3.62916e-08
3.76968e-12
-2.14453e-13
6.77995e-11
6.91431e-12
-1.28967e-06
-2.52315e-06
-2.58013e-06
4.23776e-07
3.08454e-08
0
7.16343e-15
-2.97783e-13
6.87784e-15
3.02787e-11
3.61351e-11
-3.22251e-11
-5.53705e-13
-4.26344e-11
-3.7079e-11
-9.75179e-14
-1.48925e-13
-4.46784e-13
-4.29291e-12
2.84748e-13
2.67519e-11
5.91614e-12
2.50829e-11
1.18853e-14
-5.00425e-13
2.99537e-13
-2.97877e-13
1.39257e-13
7.12414e-11
-1.89927e-12
-1.63623e-09
-3.22031e-09
-2.96433e-09
-3.3379e-09
5.41265e-11
0
-3.56667e-12
-1.98012e-14
-8.55444e-13
-2.10523e-10
-0.00951358
-0.0226144
-0.0228736
-0.0221839
-3.17191e-05
1.61531e-10
-9.35229e-14
2.42805e-13
-1.40922e-09
-0.00890559
-1.83297e-05
-2.48004e-13
9.2719e-14
-3.21514e-09
-0.0225331
-3.10507e-05
3.18062e-11
-2.76124e-11
-3.11683e-09
-0.0228874
-3.15525e-05
-2.77107e-11
-2.67899e-11
-3.47931e-09
-0.0221895
-2.87599e-05
-3.13347e-11
-1.49357e-13
3.1172e-11
-3.21616e-05
2.81478e-07
-1.95804e-13
-4.87147e-13
-6.09245e-11
2.12233e-10
-1.83416e-05
-3.10497e-05
-3.15201e-05
-2.83793e-05
2.56566e-07
-6.02334e-13
1.87283e-13
-2.9786e-13
4.98564e-13
-1.58321e-12
3.21061e-11
-1.85779e-11
2.04953e-14
6.44576e-13
6.27159e-13
-3.21996e-14
8.9377e-13
3.85726e-11
2.48701e-11
6.44237e-13
3.24342e-11
1.29852e-12
3.2336e-14
-6.67129e-14
-5.54504e-13
-3.61388e-11
1.48955e-13
6.79691e-11
-5.96154e-13
5.76372e-13
-9.74739e-11
-5.14862e-11
-5.53293e-11
-5.84477e-11
4.24901e-12
1.79128e-12
8.53516e-13
3.40842e-11
-6.6276e-11
-1.22064e-08
0.000167677
0.000157157
0.000156502
0.000157937
0.000157057
7.63929e-10
-5.5476e-11
2.87248e-11
-3.87482e-11
0.000167529
-1.36676e-07
-3.48976e-11
-2.10638e-13
-6.29628e-11
0.000157245
-1.66285e-07
-4.50034e-15
2.7815e-11
-1.09281e-10
0.000155893
-1.66662e-07
4.45017e-13
-2.3465e-13
-4.34702e-11
0.000158035
-1.63915e-07
-2.64583e-11
-5.5193e-11
2.99363e-13
0.000157168
1.504e-08
-4.57537e-11
1.58993e-13
-7.1349e-11
7.47001e-10
-1.36704e-07
-1.66221e-07
-1.66552e-07
-1.63515e-07
1.53592e-08
6.02208e-13
-3.01349e-13
-7.44725e-13
-3.18626e-11
-4.45928e-11
-6.10186e-11
-4.30118e-15
-8.13309e-14
4.14754e-11
-1.33734e-13
-2.64525e-11
-1.48971e-13
1.48915e-13
-3.22133e-11
2.70602e-11
-2.67194e-11
-3.10195e-11
-2.41828e-11
-1.30476e-11
1.68007e-12
-7.48807e-13
-1.4895e-13
1.14216e-13
-2.98101e-13
1.14281e-10
-2.92924e-13
-1.17175e-12
-7.03665e-12
-2.9256e-13
4.20874e-13
-7.13737e-11
-2.5287e-11
8.41272e-14
6.58803e-11
-1.22628e-12
1.2162e-10
1.17604e-12
-2.35599e-12
5.87198e-13
-1.03589e-10
-3.97292e-13
-4.63666e-11
6.36219e-14
-6.38435e-11
-1.28265e-10
1.76018e-12
-2.70376e-13
4.18256e-11
0
1.51072e-10
-6.11319e-11
-3.17839e-11
-2.26139e-13
0
8.19009e-11
1.54424e-10
-8.6141e-13
6.57723e-11
4.35937e-11
2.45334e-10
1.31539e-11
-5.20351e-12
-1.54488e-12
1.10522e-11
1.66825e-10
-1.47941e-12
3.45347e-13
-9.21807e-12
7.11028e-11
-1.88409e-11
1.71712e-12
5.22292e-11
-5.13142e-11
7.11195e-14
1.85307e-12
0
-3.17924e-11
1.48938e-13
2.31222e-14
1.49726e-12
-3.19627e-11
2.5835e-11
5.59411e-14
-5.34719e-13
3.20651e-11
-8.63046e-13
-1.10136e-13
-3.85657e-11
-2.56998e-11
-6.19066e-13
2.5522e-13
-1.70282e-12
-3.54579e-13
2.59318e-11
-2.66227e-11
1.79249e-13
-1.93487e-14
-3.1998e-11
0
-1.12267e-10
2.92849e-12
-5.85626e-13
-4.24952e-11
2.92439e-13
-2.33638e-13
1.25446e-10
-1.19218e-12
4.64956e-13
-5.18843e-13
-1.83876e-12
4.68473e-12
1.14888e-10
5.90812e-13
1.02448e-10
2.02284e-12
-9.26891e-11
2.8413e-11
-2.16813e-11
6.46879e-11
2.59834e-13
1.45759e-13
-4.02853e-11
9.38397e-13
-2.92816e-13
2.84901e-10
-7.42565e-12
-2.97447e-11
-7.04418e-14
-2.93059e-13
2.8356e-11
-7.14576e-11
-1.1242e-12
3.02381e-13
-4.21096e-11
-8.88971e-11
1.05042e-12
2.60811e-11
-7.30498e-12
-1.05738e-11
-3.01714e-13
7.14325e-11
4.19459e-11
8.32905e-14
5.85393e-11
8.70876e-13
3.52679e-13
-5.20787e-11
5.20919e-11
2.5705e-13
-2.27159e-12
5.03981e-13
-3.69625e-11
8.93536e-13
3.20091e-11
8.27715e-11
6.27107e-11
-3.82055e-11
2.69551e-14
-3.02225e-13
3.7222e-11
2.65882e-11
-1.23032e-12
-7.44475e-13
3.28386e-11
-2.70095e-11
5.00378e-14
3.22687e-11
2.87039e-13
1.26873e-11
-3.78665e-13
-1.50549e-11
-7.89333e-12
2.67449e-13
0
-1.1401e-12
5.91408e-11
7.14585e-11
5.04166e-11
2.92478e-13
-5.02874e-13
-5.55569e-11
2.89025e-11
1.43895e-13
-7.11859e-11
-6.12541e-13
5.41905e-12
-1.45404e-12
-1.01058e-10
-5.88924e-13
-8.88788e-11
9.26585e-11
1.98306e-11
3.49141e-11
5.85467e-13
1.13849e-12
3.93971e-13
-1.11898e-13
-1.5904e-11
0
6.45656e-13
-1.45095e-11
3.59826e-14
-4.86324e-14
-1.17243e-12
0
5.80006e-11
3.60571e-13
-3.9165e-11
-2.10572e-11
7.5966e-11
2.97536e-12
3.73738e-11
1.28643e-12
-1.37874e-12
1.20205e-10
-1.08364e-11
-7.35805e-13
9.82902e-12
-5.73413e-11
-4.27318e-13
-1.28723e-12
-6.06814e-11
-8.2792e-11
-7.4272e-12
4.96176e-14
-1.20558e-12
3.15389e-11
1.4891e-13
-2.88815e-13
-4.77887e-13
-1.49405e-12
-3.67434e-13
-4.88981e-14
6.50479e-13
-3.24786e-11
6.57213e-13
-3.63392e-11
-2.97787e-13
6.77884e-13
-2.30338e-14
-2.04199e-13
9.8125e-14
-1.94966e-13
-2.55577e-11
2.74419e-11
-1.36452e-13
-1.29578e-13
-3.54701e-13
-5.96202e-13
-3.47789e-13
-6.26803e-11
-7.37907e-11
-2.93082e-13
1.90092e-11
-7.98945e-12
5.97323e-13
7.34891e-13
-5.4033e-13
7.20932e-11
6.13985e-13
-1.05393e-13
-5.89841e-13
5.90948e-13
7.06675e-12
-1.27669e-10
2.7444e-13
-5.87862e-13
-7.36055e-12
-6.20588e-11
3.53242e-11
5.92092e-11
8.8382e-12
-6.99362e-13
1.75693e-12
-1.28253e-10
8.26834e-11
2.99109e-11
-4.67615e-14
-7.0921e-11
1.18188e-12
-5.76318e-11
-3.86991e-12
-1.41064e-13
1.95919e-11
0
-6.73926e-11
1.06727e-13
3.32292e-12
5.21813e-13
-4.04194e-12
-1.90752e-11
1.91131e-13
-5.40811e-14
-2.68862e-12
-3.39621e-13
1.06392e-12
-1.38954e-11
8.34164e-11
2.07661e-11
-5.50448e-13
-6.69103e-11
3.69094e-11
-4.4673e-13
-3.6702e-14
-4.08567e-11
-3.7289e-11
1.10142e-11
-2.92094e-11
1.28401e-12
-5.20942e-13
2.18371e-13
-3.66379e-11
7.4452e-13
-7.30244e-14
-1.67561e-13
-1.4242e-13
-1.36345e-13
-2.63906e-13
-2.36247e-13
-3.5253e-13
4.81493e-11
8.04306e-12
-3.17886e-11
1.19218e-12
-3.12873e-13
2.63561e-12
-2.92808e-13
0
-1.93008e-11
8.3558e-12
2.98561e-13
4.62675e-13
-3.91139e-12
-1.02417e-12
0
1.21353e-10
1.39662e-10
-5.90359e-13
5.88382e-13
-1.22202e-12
2.51305e-12
2.66065e-11
-3.48448e-11
1.40544e-10
1.38783e-12
-5.87253e-11
-1.08526e-13
-2.65293e-11
1.17118e-12
1.17859e-12
6.29515e-13
-5.61136e-13
-5.14246e-13
1.25129e-10
1.12166e-10
-8.0447e-14
7.33677e-13
-3.22564e-13
-7.74867e-11
5.29442e-12
6.35758e-11
-9.13394e-14
5.12309e-14
6.56981e-11
-1.60377e-10
4.40582e-11
1.11969e-13
6.50727e-13
1.19453e-12
1.52886e-11
8.51614e-13
7.56564e-11
-2.17693e-12
4.87692e-11
-4.99322e-11
1.38872e-10
1.96625e-13
2.7844e-13
3.36008e-11
1.21449e-13
-2.48258e-11
2.57648e-13
5.7554e-13
-3.20445e-13
1.28639e-11
-1.942e-14
3.61952e-11
4.46798e-13
-2.21153e-13
-4.54987e-13
2.01375e-13
-1.2205e-13
1.34314e-13
1.21013e-13
-6.58452e-12
3.0219e-14
-5.9783e-12
2.8788e-11
5.60269e-11
-1.48346e-12
-1.46644e-12
5.87719e-13
0
-2.93392e-13
-1.47122e-12
8.95401e-13
-3.33873e-13
3.23675e-14
1.21437e-13
-1.22082e-12
4.87367e-11
-1.37665e-10
-5.91663e-13
-1.20391e-10
-1.46428e-10
-4.02879e-12
5.8806e-13
7.03993e-11
-7.91796e-11
-1.43901e-10
7.68466e-11
3.20213e-11
-5.11765e-13
-1.46921e-12
-3.545e-12
-5.26795e-11
-3.84323e-14
-6.88371e-13
-5.23505e-11
1.18331e-12
5.98935e-11
4.8095e-11
-5.72305e-13
7.74512e-11
-5.90101e-13
9.47463e-13
-6.37563e-13
3.10303e-11
-6.53535e-11
9.95772e-11
3.8285e-11
-3.02316e-13
1.37722e-13
-5.96863e-13
-1.31677e-11
7.36899e-11
8.76209e-11
-3.62223e-13
-6.22186e-11
4.97533e-11
-6.92068e-11
2.81228e-13
-5.76403e-13
-3.13279e-11
-2.50933e-11
-4.69626e-13
2.65429e-11
2.88581e-11
-6.8545e-13
7.56046e-13
6.02889e-13
3.78417e-11
1.48953e-13
6.05093e-13
7.83482e-13
1.0069e-13
9.50948e-14
4.05057e-13
-2.47434e-11
2.59706e-11
-3.31593e-11
3.17312e-13
7.85265e-11
-5.7547e-11
8.0407e-13
-8.8044e-13
2.93901e-13
-5.76551e-11
2.93462e-13
3.94364e-13
-1.19487e-12
-3.91465e-13
3.79633e-12
-3.81856e-13
-6.13792e-13
-6.97916e-13
1.063e-10
-1.77584e-12
-1.03252e-10
-1.58323e-11
1.87775e-11
9.15632e-13
1.19444e-13
8.80321e-13
1.63331e-12
-1.5114e-10
1.54188e-13
-5.85036e-14
-8.81652e-13
9.96223e-11
1.0763e-10
3.45228e-13
-3.0533e-11
-3.52978e-12
1.29342e-12
-5.96859e-11
6.43906e-12
-1.97899e-13
5.86907e-13
-3.34783e-12
1.14723e-13
-3.25484e-13
-2.97843e-11
6.2898e-12
-2.60937e-10
2.89023e-13
-4.35004e-11
-7.25115e-13
-2.7184e-11
-2.14939e-11
-1.31406e-10
-1.82655e-11
7.25895e-11
1.00154e-12
2.79986e-13
6.99282e-11
-3.68819e-11
1.48979e-13
-3.36438e-11
-9.35286e-14
-1.21062e-11
-5.37143e-13
1.43767e-14
1.03224e-13
-1.30856e-11
-1.92417e-13
3.36853e-13
-5.95802e-13
2.62184e-13
2.80431e-11
-2.62138e-11
-3.59671e-13
-2.60667e-11
-1.24687e-13
6.87037e-12
5.25346e-14
5.79058e-12
-2.87365e-11
-2.98181e-13
-6.36193e-13
-7.02971e-11
0
5.62724e-11
2.92471e-13
-8.2493e-11
6.69026e-11
1.10312e-12
2.02423e-13
1.09162e-13
6.13609e-13
3.89859e-12
0
-3.53873e-12
-1.33436e-10
1.30916e-12
6.68952e-11
2.78032e-11
-4.13901e-11
5.38876e-11
-9.20364e-13
7.13821e-12
-2.5169e-13
9.0515e-13
0
-1.17751e-12
-5.51758e-11
2.31196e-13
5.58321e-13
2.93073e-12
1.17957e-12
5.35482e-13
-4.30496e-11
-3.25381e-11
-5.84914e-13
-9.99285e-11
6.28765e-13
-4.0548e-11
6.77381e-13
-5.54373e-12
-9.88159e-14
-5.64059e-11
-2.55967e-11
1.08893e-13
-2.83741e-11
1.10539e-12
5.61315e-11
-6.92692e-11
-1.46029e-10
-9.24147e-12
-1.14028e-12
-1.56418e-10
-3.98501e-13
2.97938e-13
3.08518e-11
2.50582e-11
2.9619e-13
3.74355e-11
-6.81773e-13
6.86274e-12
3.69866e-11
-2.59612e-13
-3.88352e-14
-2.66645e-11
1.74971e-13
-9.09795e-13
-5.29457e-13
-5.26176e-14
2.9863e-11
2.4907e-11
-2.61317e-11
-1.86289e-13
-1.29651e-13
-7.81304e-11
1.49084e-12
-3.50346e-13
7.00001e-11
0
-5.62723e-11
-5.2934e-11
1.5215e-10
-1.37392e-11
4.17231e-11
-3.44296e-13
1.8162e-12
-1.84062e-12
-1.5112e-13
-4.2586e-13
-3.5453e-12
1.17752e-12
-1.42143e-10
-6.5165e-11
-6.16827e-13
2.97297e-11
-1.24756e-10
7.25626e-13
6.59197e-11
3.659e-13
7.33281e-13
7.55481e-11
-3.58676e-12
9.61315e-13
9.17589e-14
3.07919e-11
-8.79206e-13
-9.80858e-11
-4.98197e-13
1.83809e-11
9.65943e-14
7.39837e-11
0
9.41628e-14
1.47936e-13
3.01226e-11
-1.56317e-13
-1.37304e-10
1.23529e-10
7.8024e-11
-5.07014e-14
5.55598e-11
-3.75946e-12
6.82968e-13
7.30596e-11
7.27318e-11
-6.73188e-11
1.73831e-12
8.71151e-11
8.61955e-11
0
-1.13403e-13
-6.19413e-12
3.77613e-11
2.53994e-11
3.606e-14
-2.49978e-13
2.70824e-13
-2.82237e-11
0
2.98043e-13
6.90494e-12
-2.78746e-11
2.57571e-11
2.35297e-13
2.55095e-11
1.2865e-13
3.95932e-15
1.63458e-13
-3.04012e-11
2.47694e-13
-2.9821e-13
-3.23121e-13
2.92764e-13
-2.92877e-13
5.6864e-11
5.29367e-11
-7.0635e-11
-5.19713e-11
-8.40668e-13
2.73278e-11
-8.56952e-13
0
1.65992e-12
2.50219e-10
5.90946e-13
-1.17769e-12
-2.15533e-12
1.66725e-12
-2.80955e-11
6.10489e-14
7.20119e-11
-1.72087e-12
-4.61806e-13
-8.47417e-14
3.75294e-11
-7.26267e-11
-7.97366e-13
-1.42293e-12
3.39529e-11
-1.24315e-13
2.93096e-13
2.36375e-12
6.58585e-11
-9.35084e-13
-5.55082e-12
-7.39886e-11
1.41895e-10
1.28364e-12
1.03526e-11
-6.81053e-14
6.52091e-11
1.40978e-10
-6.66125e-11
2.84009e-11
9.87644e-13
0
6.13461e-11
-7.17218e-13
-7.28065e-11
-2.00847e-12
7.55568e-11
-1.81194e-12
6.02849e-13
5.64954e-11
1.49017e-13
4.54084e-13
-2.59199e-11
-7.61396e-13
-3.66429e-11
8.18412e-13
-6.56425e-12
-3.6273e-11
8.68585e-14
6.35138e-13
2.62478e-11
-6.45418e-13
-1.19508e-13
2.84032e-13
-2.13348e-13
-2.99114e-11
1.87796e-13
4.56978e-14
-1.46395e-13
-3.68548e-11
3.13829e-11
-3.87811e-11
6.3806e-11
-2.92751e-13
-5.5642e-11
-1.17229e-12
5.84882e-13
-6.45441e-13
-2.98835e-13
-7.48671e-11
3.31586e-14
5.58704e-13
-6.13689e-13
1.2412e-10
1.50026e-13
-5.90698e-13
1.76573e-12
-1.29496e-12
-2.03976e-12
-3.7042e-14
-4.82878e-11
0
-2.36525e-10
-3.0581e-13
-6.49107e-13
-1.6941e-12
5.06571e-11
1.38561e-10
-7.85316e-12
-2.77089e-13
1.15325e-13
0
1.26998e-10
-6.59049e-11
-2.50626e-11
-7.62961e-14
0
1.76569e-12
-6.15889e-13
8.33054e-13
4.60178e-13
-6.49825e-11
-1.44367e-13
4.99511e-13
-3.46076e-11
-2.82228e-11
0
-3.71038e-11
-9.95682e-14
5.24799e-11
-7.13606e-11
-6.9491e-11
-5.26481e-13
-3.31464e-12
-4.98903e-11
1.57872e-11
3.50881e-13
6.02395e-12
2.98882e-11
-2.48631e-11
4.0228e-14
-3.12588e-13
2.26144e-13
5.89925e-11
1.10182e-13
0
-7.25824e-12
2.72603e-11
9.67816e-13
1.37105e-13
3.4306e-15
-3.57266e-11
-4.48767e-13
1.73076e-13
2.98709e-11
4.53654e-14
5.1652e-11
-6.36705e-11
6.33652e-11
5.63757e-11
-5.87659e-13
-5.86412e-13
8.8806e-13
-2.98995e-13
-7.15575e-14
-2.73246e-11
7.57092e-14
3.06436e-12
1.63428e-10
-5.87545e-13
1.3828e-10
1.38435e-10
1.02544e-10
-2.36031e-11
2.62637e-11
-2.66395e-11
-8.80193e-13
-6.34611e-11
-8.37749e-11
3.87008e-13
-3.83825e-11
-1.13034e-10
1.12211e-10
7.5033e-12
-3.38426e-11
-4.61415e-11
5.87665e-13
-5.8842e-13
-7.96699e-11
2.95442e-11
3.91562e-11
8.20998e-12
2.69831e-11
-5.23123e-13
3.09434e-11
-9.63918e-13
-3.59904e-13
1.39004e-13
2.62097e-13
-3.32544e-12
-3.53515e-11
2.98972e-13
5.34043e-11
8.40371e-11
-5.30262e-11
7.40964e-11
7.0369e-11
7.95282e-11
6.02467e-11
-8.72908e-11
1.68698e-13
3.69063e-13
-2.18331e-12
-4.87347e-13
7.6604e-14
-1.3843e-13
2.98645e-13
-7.2073e-13
9.8568e-13
-7.46461e-13
-2.58162e-11
-4.79368e-11
-3.69972e-11
-8.24972e-14
-1.99941e-13
1.27542e-13
4.71343e-13
3.17366e-11
2.51807e-13
3.74519e-11
-1.5309e-14
-1.374e-11
-6.93311e-11
-6.23527e-11
5.20995e-11
8.93643e-13
1.48659e-12
-5.94261e-13
1.49546e-12
7.42283e-12
-9.22876e-15
-3.17255e-14
1.22409e-12
-1.26981e-10
-1.38753e-11
1.1313e-10
1.13005e-10
-2.91523e-10
2.15563e-11
2.64467e-11
1.91291e-11
1.18788e-12
-2.73213e-11
8.37942e-11
-5.77474e-13
1.7103e-12
5.80577e-11
1.16095e-10
6.01217e-13
3.34069e-11
5.52182e-13
2.9794e-13
1.4608e-10
1.4742e-11
2.89782e-13
5.30009e-13
-7.43422e-12
5.51699e-13
-7.73532e-11
-1.59224e-14
1.76756e-12
-1.48583e-12
-1.60501e-10
3.02698e-13
1.84765e-12
2.76633e-11
5.98091e-13
-1.05984e-10
-8.50749e-11
-7.40887e-11
7.31137e-11
1.28925e-11
-2.61733e-11
-5.81822e-11
-1.66313e-13
-1.64106e-11
-1.45435e-13
1.28013e-13
-3.05944e-11
2.57142e-11
-3.99467e-13
2.66917e-11
-5.60818e-13
-3.10206e-11
0
2.97773e-13
9.94498e-14
-3.15267e-11
3.61803e-14
-4.44862e-12
-3.44238e-11
3.56041e-11
3.52086e-11
2.64484e-11
3.07962e-11
7.93302e-13
-5.62539e-11
1.60199e-10
-1.0158e-12
-5.19093e-11
4.95587e-11
-5.92934e-13
-7.41021e-12
-6.12704e-11
-3.23424e-11
4.35373e-14
5.94406e-13
2.23666e-11
-1.17873e-12
-4.13644e-12
1.18216e-12
4.80496e-14
-1.53467e-10
2.93656e-12
-2.64175e-11
2.68916e-11
-4.40505e-13
-1.30127e-13
1.06347e-12
4.62875e-13
-1.94797e-11
-3.13369e-11
5.71361e-13
-4.18213e-13
-3.06889e-11
3.06503e-13
1.9193e-12
-1.18223e-12
-1.75286e-11
5.93414e-11
-1.86172e-11
2.10584e-12
0
-7.41366e-12
4.728e-13
1.28869e-11
-1.45441e-11
-2.09185e-11
-1.03082e-12
-5.316e-13
1.72891e-11
-3.56776e-12
5.81331e-13
6.57836e-11
-2.96928e-11
6.65145e-13
-5.93058e-13
-9.66436e-11
7.23846e-11
-6.98808e-11
4.17547e-11
-3.66322e-11
5.76854e-13
7.67171e-11
-2.41703e-13
3.2504e-11
5.92908e-13
1.70541e-11
3.42397e-12
-1.669e-10
-1.16408e-12
2.32662e-12
1.23218e-10
-2.01247e-13
1.01065e-12
3.49837e-11
1.48713e-12
9.4787e-11
3.02118e-13
7.29415e-11
-7.23753e-11
-1.36274e-11
-5.50033e-11
0
3.1849e-11
-3.3063e-11
3.003e-14
2.42684e-11
-1.29316e-13
2.99934e-11
5.46253e-14
2.45734e-13
-1.52967e-12
-3.57954e-11
2.0843e-12
2.73187e-11
4.83707e-11
3.70424e-11
-3.70046e-12
-1.09453e-13
0
-5.92067e-13
-3.19493e-11
9.09254e-13
1.05807e-12
0
1.08469e-11
-4.15317e-11
1.05527e-13
-5.90751e-13
2.49352e-12
-8.85395e-12
6.79785e-12
-1.36101e-11
2.56655e-11
6.37132e-12
3.08344e-13
-8.84047e-13
-6.03197e-11
0
-8.561e-13
-2.93793e-13
2.93963e-13
1.58365e-13
-2.63702e-11
-2.7679e-11
1.61891e-11
2.93731e-13
2.93544e-13
-6.67223e-11
6.8947e-11
5.32927e-11
-1.46492e-12
5.35192e-13
2.95991e-13
-1.4798e-13
-3.74889e-11
2.92053e-13
1.73007e-11
-8.70894e-12
1.14729e-13
-4.16629e-12
1.91183e-13
-2.39093e-11
-3.32918e-11
-5.91925e-13
2.84145e-12
6.0051e-11
1.171e-11
9.27343e-12
-1.82704e-11
-1.92295e-12
1.37216e-12
2.28142e-11
0
-5.92074e-13
7.33487e-12
7.99782e-11
-2.16729e-11
6.81339e-11
0
-1.24238e-12
-7.7317e-13
3.92292e-13
-4.44021e-13
2.50201e-11
2.95586e-13
5.37011e-11
-5.86546e-13
-4.19135e-14
-2.42473e-13
1.19902e-10
-7.50185e-11
-2.94933e-13
-1.55161e-12
-2.96747e-13
-1.47042e-11
-8.8635e-13
3.74854e-11
2.94883e-13
-3.26127e-11
5.88928e-11
-1.16194e-11
-1.27425e-11
4.45155e-13
1.67329e-13
-1.29392e-13
-3.48886e-13
0
-2.55733e-11
5.919e-13
-2.57517e-11
1.48151e-13
-1.48361e-13
2.96927e-13
-1.48202e-13
2.96244e-13
2.16096e-11
1.47935e-13
4.88148e-12
3.43166e-11
0
-6.20217e-11
-2.74026e-11
-3.12694e-11
-1.18496e-12
-3.34433e-11
3.65106e-11
2.58536e-11
-2.19368e-11
-3.236e-11
4.29907e-11
1.14518e-11
4.58726e-11
3.22885e-11
-2.60491e-11
0
-1.18397e-11
-1.28343e-11
1.47659e-13
1.3216e-11
-4.42581e-13
-1.14707e-11
-2.54219e-11
0
-2.61824e-11
-2.95463e-13
-2.02816e-12
-2.29292e-11
-1.99847e-11
-1.99106e-11
-4.65372e-12
-4.22688e-11
-1.47739e-13
3.07672e-11
5.91588e-13
-2.65931e-11
-1.9144e-11
0
3.51544e-11
4.64239e-11
1.00665e-11
1.06325e-11
-4.43309e-13
1.1832e-12
3.38683e-11
0
-2.09487e-11
-3.40092e-11
-2.68497e-11
7.41631e-13
-7.62372e-12
-6.82974e-12
-3.01451e-11
2.95807e-13
2.9585e-13
-6.94224e-11
-3.01475e-11
4.16242e-11
1.32538e-11
-3.5274e-11
-1.82459e-11
1.99159e-11
-2.74776e-11
0
-3.15269e-11
8.45903e-12
9.0345e-12
-1.13916e-11
-8.63867e-12
-2.21514e-12
-1.23564e-11
1.2356e-11
-4.02656e-12
2.73836e-11
2.96229e-13
-3.43304e-11
-2.2828e-11
-2.5554e-11
3.66719e-11
3.33938e-11
0
3.63598e-11
3.89179e-11
-4.44366e-13
3.30458e-11
0
2.66411e-12
-1.47926e-13
-3.00268e-11
-2.94333e-11
-8.87535e-13
-3.19313e-11
7.64648e-11
-2.07477e-12
2.60571e-11
-5.9202e-13
1.47947e-13
4.14138e-12
-7.39478e-13
-1.47896e-13
1.4791e-13
-5.91807e-13
-5.92028e-13
-1.33246e-12
-3.43366e-11
-3.59485e-11
7.39324e-13
4.43494e-13
0
-3.11939e-11
1.47835e-13
1.47871e-13
2.67768e-11
0
-3.35824e-11
-2.9572e-11
-2.95575e-13
-2.4236e-11
-2.52779e-11
-6.00176e-11
1.47788e-13
6.0004e-11
1.47862e-13
0
2.6473e-11
-2.73461e-11
0
3.69551e-12
7.3962e-13
-3.96448e-11
0
4.43368e-13
-1.47829e-13
1.03529e-12
-3.31242e-11
3.81352e-11
-5.9116e-13
-2.95797e-13
-3.42004e-11
2.96117e-13
-1.4793e-13
-2.86788e-11
6.07595e-11
4.43658e-12
-1.47875e-13
3.237e-11
3.28083e-11
2.95791e-13
1.48054e-13
0
2.44085e-11
-4.43485e-13
0
2.54367e-11
1.47893e-13
2.9562e-13
6.9294e-11
-1.47804e-13
0
-2.95862e-13
-2.57245e-11
-1.47787e-13
3.341e-11
0
-2.72208e-11
-1.47854e-13
1.47768e-13
0
-3.51815e-11
-1.33045e-12
3.93121e-11
-7.38965e-13
-5.91476e-13
-2.95898e-13
0
1.47931e-13
-5.91425e-13
-2.92688e-11
-1.47833e-13
1.47834e-13
-4.15403e-11
-4.43589e-13
-2.72206e-11
-4.44018e-13
0
4.4399e-13
4.43817e-13
1.47899e-13
-1.47888e-13
1.29569e-13
3.23532e-12
-1.85133e-13
1.11035e-13
2.96102e-13
1.28734e-11
5.91782e-13
-1.80457e-11
1.47896e-13
1.331e-12
-5.91561e-13
0
2.73653e-11
8.87693e-13
1.47972e-13
-1.47943e-13
1.47914e-13
7.39417e-13
-2.57293e-11
2.8835e-11
-6.65429e-12
-7.54157e-12
-4.43667e-13
-4.43754e-13
0
2.64758e-11
-8.87274e-13
2.95708e-13
-2.61705e-11
-2.9575e-13
-3.32724e-11
-2.73547e-11
1.90742e-11
2.51405e-11
2.95828e-13
2.63234e-11
7.39291e-13
-2.95695e-13
3.35679e-11
1.86377e-11
4.14183e-12
4.58454e-12
3.35648e-11
-7.3935e-13
-7.39462e-13
-5.91491e-13
2.64657e-11
2.76491e-11
2.95813e-13
-6.555e-11
-4.64637e-11
4.43772e-13
5.91512e-13
-2.95741e-13
-1.47885e-12
1.47872e-13
0
-2.95707e-13
4.43713e-13
0
-1.03582e-12
-2.95848e-13
-2.72096e-11
0
3.46053e-11
-1.47882e-13
3.47457e-11
2.64634e-11
1.47869e-13
3.75706e-11
3.53534e-11
6.98033e-11
-5.9145e-13
2.7652e-11
2.95791e-13
1.47907e-13
0
-2.95691e-13
3.26744e-11
-5.91484e-13
-3.72647e-11
-1.47862e-13
0
0
-2.75127e-11
-1.47939e-13
3.44628e-11
3.22371e-11
5.91452e-13
-3.71146e-11
-1.62656e-12
-5.9148e-13
1.47885e-13
-5.9167e-13
-3.69869e-12
1.47964e-13
0
1.4791e-12
-1.47889e-13
0
2.92995e-11
1.34941e-12
3.32807e-11
-4.17207e-11
-2.95943e-13
-1.47922e-11
1.03536e-12
1.47892e-13
-2.95763e-13
2.21818e-12
2.9576e-13
-2.9577e-13
5.91586e-13
0
1.47926e-13
3.49057e-11
3.62336e-11
-8.87275e-13
-7.39376e-13
2.88362e-11
2.41044e-11
-8.87279e-13
1.47885e-13
-2.67695e-11
2.95821e-13
2.66194e-11
2.85399e-11
-4.43609e-13
-1.92241e-12
2.51415e-11
-8.8736e-12
-2.73586e-11
-3.44557e-11
-4.4365e-13
2.95786e-13
2.07019e-12
4.43596e-13
-2.95742e-13
-1.47895e-13
3.68324e-11
3.9348e-11
0
-2.95768e-13
-8.87265e-13
-7.39405e-13
3.29735e-11
-4.43588e-13
7.39387e-13
2.95827e-13
2.81104e-12
-2.95908e-13
4.43779e-13
2.88394e-11
-2.5583e-11
-4.28842e-12
0
-3.28253e-11
2.95752e-13
4.43736e-13
-1.47949e-13