/*--------------------------------*- C++ -*----------------------------------*\
  =========                 |
  \\      /  F ield         | OpenFOAM: The Open Source CFD Toolbox
   \\    /   O peration     | Website:  https://openfoam.org
    \\  /    A nd           | Version:  10
     \\/     M anipulation  |
\*---------------------------------------------------------------------------*/
FoamFile
{
    format      ascii;
    class       volScalarField;
    location    "0.5";
    object      gradTy;
}
// * * * * * * * * * * * * * * * * * * * * * * * * * * * * * * * * * * * * * //

dimensions      [0 -1 0 1 0 0 0];

internalField   nonuniform List<scalar> 
47104
(
4.37803e-13
4.37779e-13
2.88613e-13
-9.20384e-15
-4.45675e-13
2.97116e-13
1.23337e-11
3.07238e-13
-2.88822e-13
-9.55132e-12
6.04907e-13
4.36832e-13
6.531e-13
5.01094e-12
-2.60679e-13
-5.6433e-13
-1.01859e-13
-1.46525e-13
1.22577e-13
3.09047e-13
8.63225e-12
6.87992e-13
3.8978e-14
2.0725e-13
5.22688e-13
-5.66179e-15
-1.25277e-11
-1.04742e-12
-4.27947e-14
9.59431e-12
7.22918e-15
3.07703e-13
-9.81717e-14
-4.9569e-12
2.38233e-13
5.67256e-13
4.8656e-14
1.553e-13
-3.08592e-13
-4.14019e-13
-8.94939e-12
-7.02995e-13
1.07489e-12
-1.17306e-13
1.16798e-12
1.00148e-13
4.38218e-12
3.83547e-13
9.31393e-12
-3.63449e-13
-3.61451e-13
8.59532e-12
-3.46931e-13
2.46253e-15
-1.41562e-13
-2.94533e-13
-2.56039e-14
1.27164e-13
2.87821e-12
1.27438e-13
9.41317e-14
4.54915e-13
-8.08209e-13
-3.66739e-13
-1.35674e-11
2.44905e-14
-4.53008e-12
-8.94299e-14
-9.59137e-12
5.15398e-13
1.98883e-13
-8.49955e-12
-5.11174e-14
7.87728e-13
6.49789e-14
2.51101e-13
-1.00785e-13
1.00609e-11
-2.90841e-12
1.02343e-11
-2.16963e-14
-2.49912e-13
3.91137e-13
1.60857e-13
1.29323e-11
-9.38689e-12
-1.58003e-14
-7.34749e-13
-8.8595e-12
-5.68762e-13
9.51284e-15
1.39735e-13
4.37336e-13
-7.34223e-13
1.48533e-13
-9.65485e-12
1.57886e-13
-1.04334e-11
-8.95305e-12
-1.01289e-11
-8.91003e-14
0
-1.58291e-11
-5.22294e-12
1.49178e-13
-1.49177e-13
1.35796e-11
8.66098e-12
-1.03047e-11
6.01163e-14
-8.23008e-12
-9.25701e-14
8.90414e-12
5.83255e-12
2.80457e-12
-2.95414e-12
-4.26222e-12
-2.91813e-12
9.04117e-15
-4.41381e-13
-4.81346e-14
-1.14037e-13
1.4958e-11
1.08292e-11
-4.89917e-13
-2.49477e-13
-1.71638e-11
-1.16069e-11
9.09883e-13
-9.62677e-12
8.50202e-12
7.67956e-14
-1.15839e-13
-2.07967e-11
1.01719e-12
2.65596e-11
-9.10005e-15
-5.66221e-13
1.73449e-13
-1.03444e-11
-8.61373e-12
-1.06446e-13
2.33232e-11
2.14197e-11
-1.08479e-12
-2.62061e-11
7.05115e-13
2.29084e-13
-1.9433e-12
8.53658e-13
-9.05465e-12
1.25531e-11
-2.2781e-11
-1.0435e-13
8.56786e-13
4.53536e-14
-5.98503e-13
-4.47875e-13
-1.01617e-11
1.95707e-11
8.8738e-12
-1.65922e-13
-1.9293e-11
-1.73855e-11
1.86392e-11
2.38499e-13
3.07201e-13
3.07323e-13
1.14553e-11
8.64453e-12
8.85506e-12
-3.44124e-12
1.87135e-11
1.73177e-11
-1.93893e-11
-1.06228e-12
1.8806e-13
-6.00728e-14
9.92818e-12
-1.78236e-11
-1.89758e-13
-5.27501e-14
2.73068e-12
-6.72877e-12
-1.12168e-13
-1.09179e-11
-1.24115e-11
-3.36682e-13
-8.1536e-14
-2.38892e-13
0
-9.10881e-12
-8.80816e-12
-2.9838e-13
4.47445e-13
-1.31255e-11
-8.5046e-12
1.19447e-12
2.98674e-13
8.50502e-12
2.09334e-13
4.47844e-12
-1.19312e-11
-1.23673e-11
-5.66334e-12
-4.47107e-13
1.04303e-12
-1.49134e-13
4.47804e-12
6.01426e-14
-4.93524e-12
-2.7258e-11
-2.27516e-11
-1.6647e-11
3.90025e-12
6.45519e-13
-1.93597e-12
-3.44167e-13
1.74851e-13
1.33845e-13
-2.31009e-13
1.74068e-11
-8.62734e-12
4.5385e-11
8.18404e-11
9.09313e-11
8.69228e-11
-6.59946e-12
-1.61904e-13
-2.46068e-13
5.21309e-12
-9.3534e-13
7.91557e-12
-1.14796e-07
-1.57481e-07
-1.61622e-07
-1.38129e-07
-2.25617e-09
-5.65953e-13
-5.54286e-14
-2.64721e-13
5.93017e-13
-2.19496e-11
-1.01112e-08
1.60926e-08
1.70921e-08
1.25995e-08
-4.02951e-10
-1.71373e-14
3.62899e-15
-3.22561e-14
2.38697e-13
2.23502e-11
2.30509e-09
-3.62218e-09
-3.899e-09
-2.82383e-09
1.02906e-10
2.6208e-13
6.84534e-14
4.6866e-13
-2.02899e-12
3.26055e-12
2.99704e-08
-4.42718e-08
-4.63731e-08
-3.59894e-08
1.15989e-09
-3.11604e-11
-2.97838e-13
-5.80826e-14
1.15637e-12
-2.9593e-12
6.07511e-09
8.36541e-09
8.55547e-09
8.07166e-09
-2.83275e-10
5.36146e-11
1.67203e-13
4.36654e-14
-2.98428e-13
1.03239e-13
-1.9299e-11
-2.45231e-13
-3.40897e-13
2.00499e-14
2.24388e-11
-2.21488e-11
1.94682e-13
1.49184e-13
-1.08942e-11
1.32684e-11
-6.70319e-12
6.85423e-12
-3.57629e-12
-8.93881e-13
9.3941e-12
3.13443e-12
-2.98375e-13
-9.52635e-12
-2.97288e-13
-4.42999e-13
-7.7756e-12
-4.10206e-12
2.2122e-11
-3.08098e-12
-4.28183e-12
-6.24176e-12
-1.10129e-11
-9.91126e-12
-1.56083e-13
-1.28655e-11
6.60017e-09
6.36369e-09
6.34664e-09
6.45978e-09
4.24042e-09
-1.76223e-11
-1.67893e-13
1.0467e-13
-2.9601e-13
-2.25226e-09
2.71662e-05
2.80733e-05
2.828e-05
2.79052e-05
2.8281e-05
4.44851e-09
1.50106e-12
4.75022e-13
-3.31921e-11
-1.13326e-07
-0.706205
-1.08016
-1.0856
-1.0722
0.116034
9.089e-09
-5.72989e-16
-9.8316e-12
-8.42899e-12
-2.47483e-10
-0.00430314
-0.0146219
-0.0152429
-0.0138928
-0.00554015
2.78041e-10
9.57355e-12
-2.00307e-13
3.81742e-12
1.06527e-09
0.000271122
0.000867595
0.000910684
0.000818413
-0.00629075
-5.9695e-11
1.22602e-13
1.88092e-11
1.78964e-11
6.15486e-09
0.0115981
0.0414318
0.0425442
0.0398689
-0.00688377
-1.43703e-09
2.17759e-14
-1.11923e-13
2.92622e-11
2.79895e-07
0.55338
0.721046
0.72371
0.715937
-0.118958
-1.29251e-08
-1.56309e-13
-8.75124e-12
2.64375e-13
7.77442e-08
1.24712e-06
1.08202e-06
1.07356e-06
1.11379e-06
5.09948e-07
8.13832e-12
3.35308e-14
-1.48842e-13
-5.94368e-13
1.66802e-11
7.04031e-12
1.0693e-11
3.80869e-12
3.8142e-12
-1.47648e-13
1.4565e-11
2.977e-13
-1.10012e-11
4.45245e-13
-3.82064e-12
-1.08867e-11
-1.33009e-11
-1.1422e-11
-3.19416e-12
3.23305e-12
-4.45151e-13
-2.82407e-12
-1.28485e-11
6.51133e-13
-1.89013e-10
-4.53364e-08
-1.29279e-07
-1.23111e-07
-1.42083e-07
3.30506e-09
-6.74007e-14
-1.36597e-11
1.06453e-11
1.47538e-12
-1.45194e-06
-0.592321
-0.720342
-0.721698
-0.718485
0.0182543
1.2682e-08
2.86695e-12
1.24223e-11
6.04769e-10
0.0165049
5.70506e-06
1.38689e-11
-6.62859e-14
3.63149e-10
0.000429509
4.58325e-07
1.41807e-11
1.50101e-13
-7.05565e-11
9.5808e-05
-7.66105e-08
-6.03675e-13
-5.41733e-14
-9.14563e-10
-0.000789658
-1.98611e-06
-1.4374e-11
2.23654e-13
4.92437e-11
0.000734945
1.10896e-06
2.52271e-13
-2.52894e-13
-1.95705e-11
4.98108e-07
0.000331536
0.00044701
0.000447922
0.000443796
-2.92671e-05
1.99207e-10
4.48935e-14
-1.4865e-13
3.26387e-12
5.87608e-13
5.95026e-12
2.3129e-12
1.21441e-11
3.00522e-11
-7.49466e-12
1.54336e-11
-1.48668e-13
-8.62496e-12
-2.07984e-12
0
-3.04576e-12
-1.32782e-11
-1.94861e-11
-1.00119e-11
1.08859e-11
7.72472e-12
0
-2.9505e-13
1.84978e-12
-2.02044e-10
-2.72333e-08
-1.38086e-07
-1.30171e-07
-1.5433e-07
3.71031e-09
-5.89625e-12
9.98698e-12
8.70709e-12
3.56264e-12
-1.53321e-06
-0.609203
-0.751937
-0.753834
-0.749257
0.0191909
1.33707e-08
-8.33845e-12
5.55228e-14
4.51411e-10
0.0205476
6.67398e-06
-1.01077e-11
1.83515e-13
4.73397e-10
0.000549538
6.5336e-07
9.70907e-12
-1.68318e-13
-6.34145e-11
6.84904e-05
-1.06692e-07
9.43986e-12
9.32591e-12
-1.22983e-09
-0.00209504
-2.67589e-06
-4.11526e-12
8.47386e-12
4.52739e-11
-0.000605149
1.24861e-06
-9.08177e-12
-9.68769e-12
4.86286e-13
5.12692e-07
0.000340967
0.000500996
0.000502607
0.000483889
-1.3432e-05
2.42063e-10
3.14334e-12
-8.47491e-12
0
0
1.88518e-11
1.58742e-11
1.3278e-11
7.3983e-12
4.70585e-12
2.06482e-11
-2.9742e-13
-1.04154e-12
-4.01459e-12
1.32456e-12
-3.19277e-12
-1.19848e-11
-9.24218e-12
-6.53366e-12
-3.38636e-12
3.12235e-12
9.8186e-12
-1.50159e-11
-5.02651e-12
-2.41893e-10
-2.01347e-08
-1.28943e-07
-1.20548e-07
-1.46575e-07
3.73027e-09
6.12527e-14
-6.1836e-14
-1.63577e-13
2.20202e-11
-1.53384e-06
-0.609988
-0.753375
-0.755351
-0.750621
0.0192137
1.33842e-08
-1.01587e-11
1.37576e-11
3.29862e-10
0.0205542
6.75433e-06
-9.72906e-12
-1.29301e-11
5.2368e-10
0.00056404
6.7902e-07
8.64307e-14
3.22117e-13
-6.98226e-11
5.37882e-05
-1.11221e-07
9.51911e-12
1.32753e-11
-1.27995e-09
-0.00109632
-2.72705e-06
1.29343e-11
-3.80632e-13
6.56877e-11
0.000817298
1.25286e-06
-3.0514e-13
-1.55452e-13
-2.25437e-11
5.1366e-07
0.000341668
0.000502896
0.00050465
0.000494295
-3.14324e-05
2.39109e-10
-1.26155e-11
1.48765e-13
-1.17414e-11
1.00052e-11
-3.0472e-12
2.36778e-11
2.29576e-11
4.78948e-12
-7.65301e-12
4.01433e-12
-1.48797e-13
0
1.97858e-11
-3.09247e-12
-8.71325e-12
-1.73394e-11
-3.28033e-11
1.2785e-11
1.47321e-13
-3.12409e-12
-5.9536e-13
7.45202e-14
2.48313e-11
-2.17176e-10
-1.92977e-08
-1.28391e-07
-1.19979e-07
-1.46183e-07
3.73031e-09
2.90021e-12
-5.42732e-13
-3.67396e-13
1.78591e-12
-1.50387e-06
-0.609992
-0.753498
-0.755482
-0.750734
0.019214
1.32564e-08
9.17406e-12
-1.93554e-13
1.81907e-09
-0.00223161
6.75842e-06
1.23083e-13
6.72024e-13
5.87142e-10
0.000901689
6.79625e-07
-8.99587e-12
-1.10174e-11
-5.11738e-11
5.84261e-05
-1.1134e-07
-6.97011e-14
2.44044e-13
-1.28197e-09
-0.00106543
-2.7303e-06
-1.59392e-13
1.1696e-11
6.94097e-11
0.000818598
1.25353e-06
2.06238e-13
-5.93252e-14
-1.86899e-11
5.11878e-07
0.00034183
0.000503077
0.000504807
0.000492991
-3.11314e-05
2.17585e-10
1.34943e-13
1.48836e-13
6.98915e-12
-1.25137e-11
1.27774e-11
2.44167e-11
1.84951e-11
1.53962e-11
5.89083e-13
4.4629e-12
1.4887e-13
-4.46712e-13
-7.88744e-12
-4.56807e-12
-5.37968e-12
-4.05212e-12
-1.67885e-11
-1.36721e-11
-6.78065e-12
2.97642e-12
-2.97795e-13
-5.84409e-13
-3.90256e-12
-2.2269e-10
-2.40206e-08
-1.34891e-07
-1.26908e-07
-1.51577e-07
3.72764e-09
1.14448e-13
-2.56872e-13
3.85721e-14
-7.76485e-13
-1.49357e-06
-0.609782
-0.752936
-0.754873
-0.750205
0.0192145
1.32466e-08
5.52463e-14
2.41201e-13
1.92769e-09
-0.00373637
6.69039e-06
-6.7435e-14
9.46834e-12
5.89253e-10
0.000865734
6.54774e-07
9.74368e-12
-3.12091e-13
-7.96757e-11
6.68422e-05
-1.06336e-07
-7.86546e-13
-9.90891e-12
-1.25382e-09
-0.00104697
-2.67535e-06
-9.76422e-12
2.91593e-13
4.1107e-11
0.000816815
1.25214e-06
6.69291e-13
6.43479e-14
3.24527e-11
5.09756e-07
0.000341931
0.000501888
0.000503511
0.000485145
-1.34322e-05
2.37647e-10
-4.85014e-13
1.48892e-13
-3.42151e-12
-2.94624e-12
1.10481e-11
5.4986e-12
1.24455e-11
8.72511e-12
3.38935e-12
0
-7.44626e-13
-1.26589e-11
2.67936e-12
5.89948e-13
1.60306e-11
-1.30643e-12
0
1.89482e-12
-3.8352e-12
-1.81609e-11
1.48938e-13
-1.18216e-11
6.848e-13
-2.1858e-10
1.49521e-08
2.63469e-09
9.82473e-09
-1.7742e-08
2.98527e-09
-4.05565e-11
8.91409e-12
2.41302e-12
1.78573e-12
-1.52096e-06
-0.60002
-0.731361
-0.732871
-0.729275
0.0185338
1.1846e-08
1.15128e-11
1.16684e-11
-1.2775e-10
0.0174285
4.7734e-06
-8.89998e-12
1.90046e-13
-8.395e-12
0.000447601
3.50553e-07
-1.18296e-11
5.33387e-13
-8.00222e-12
5.93633e-05
-5.67141e-08
2.60237e-13
1.88713e-11
-1.28836e-10
-0.000783376
-1.42575e-06
3.1211e-12
-3.48376e-13
4.81047e-11
0.000778309
9.79e-07
2.60952e-13
-9.55662e-12
-5.90198e-12
5.0299e-07
0.000286625
0.000331101
0.000331335
0.000333262
-2.81964e-05
2.10853e-10
-2.85961e-12
0
4.76174e-12
2.94872e-12
1.18014e-11
-3.62844e-12
-1.16118e-12
-1.95268e-11
-1.78442e-11
0
-4.46885e-13
0
5.95421e-13
-3.0978e-12
-1.19524e-11
3.91953e-12
-1.08873e-11
3.35194e-12
-2.2124e-12
-4.46621e-13
-2.68119e-12
3.13892e-14
-3.60994e-13
2.06084e-11
1.01213e-10
1.14225e-10
7.70085e-11
1.04266e-10
-1.13078e-10
-1.34526e-11
2.10758e-14
2.41935e-14
2.97635e-13
-4.88016e-08
-7.88181e-05
-8.23386e-05
-8.24082e-05
-8.22994e-05
-7.30733e-05
1.50379e-10
2.61873e-12
1.09307e-13
-1.19869e-12
6.11001e-07
-2.55106e-09
1.07217e-11
1.69446e-13
-1.91692e-11
1.21825e-08
-1.77662e-10
-3.50814e-14
-9.21854e-12
1.83408e-11
3.38176e-09
6.27877e-12
-2.18266e-11
3.36597e-13
5.18812e-13
-3.32252e-08
6.86968e-10
9.39211e-14
8.55713e-12
-1.76854e-12
-3.00836e-06
1.67089e-10
1.11693e-11
-3.08088e-13
4.64886e-13
8.2468e-09
-2.66478e-07
-2.79215e-07
-2.801e-07
-2.76282e-07
-4.97344e-08
4.69025e-12
-1.49917e-13
0
-3.12507e-12
-5.89776e-13
1.13649e-11
-1.43692e-11
3.62896e-12
7.14143e-12
3.6872e-12
-2.38187e-12
1.48971e-13
-2.23373e-12
-8.78108e-12
8.84486e-12
2.90917e-13
4.63181e-12
-4.19736e-12
-1.01791e-11
2.94762e-13
-8.03844e-12
1.4895e-13
-1.30809e-11
-2.95655e-11
-1.17035e-12
1.68466e-13
1.64256e-11
-1.8425e-13
8.43531e-12
3.27218e-13
7.19615e-12
-9.3898e-12
-1.08834e-11
1.84561e-11
-2.12304e-11
3.86306e-11
-1.9571e-11
-1.58728e-12
-2.92524e-13
2.27177e-11
3.01772e-13
-4.7225e-13
-2.63009e-13
2.56575e-11
2.31525e-11
8.16792e-13
9.28186e-12
-1.42497e-13
-2.59444e-11
-1.5373e-12
-1.76442e-11
7.77308e-14
2.6919e-13
9.31642e-14
2.41059e-13
1.78897e-11
-8.78858e-12
-9.26616e-12
2.08711e-11
3.33998e-12
-6.75478e-12
-1.42623e-11
1.11448e-13
-2.02799e-11
-3.73441e-11
3.1094e-11
9.00151e-12
8.8407e-12
2.88377e-13
-1.7969e-11
-8.48664e-12
-1.39689e-11
7.03336e-12
-3.35337e-12
-1.53147e-11
-2.46787e-11
1.43361e-11
-5.95753e-13
-1.47308e-11
-2.00393e-11
-3.05349e-12
4.92055e-12
3.90817e-12
-2.90952e-13
-2.12268e-11
-8.18644e-12
1.48958e-13
-1.48902e-13
1.51785e-11
-1.54702e-11
7.26523e-13
1.45995e-11
-1.05515e-11
1.13311e-11
-4.41957e-13
3.27451e-12
-9.97882e-12
-1.25678e-13
7.81193e-12
-1.31993e-11
-2.98077e-13
1.36666e-11
2.09397e-13
1.15917e-11
-1.95447e-11
1.88985e-12
-1.58378e-11
2.23237e-13
1.19158e-12
3.36234e-13
-1.39957e-12
2.55572e-11
1.82152e-12
-2.88313e-13
1.35366e-11
-2.11366e-12
9.60815e-12
1.41843e-11
5.00627e-13
-1.74329e-12
-1.77862e-11
1.56404e-11
-8.39871e-14
-2.11036e-13
5.89732e-13
4.08065e-11
-4.01969e-13
-1.21261e-12
8.09648e-15
3.55682e-11
-2.26003e-11
-1.25331e-11
-1.054e-12
-8.39878e-13
1.16822e-11
-8.85552e-13
7.65104e-13
-2.06473e-11
-5.88527e-13
2.37495e-11
-1.36313e-11
1.88909e-12
1.09421e-12
3.52577e-13
5.32134e-11
3.41753e-12
-1.96975e-11
-2.94205e-11
-5.9839e-12
4.81784e-12
8.66406e-12
-1.13955e-13
7.14829e-12
2.97563e-13
-5.89159e-12
1.59788e-12
3.75772e-12
5.92641e-12
-8.71871e-13
1.82694e-11
-8.92898e-13
1.08727e-11
0
5.95208e-13
3.83041e-12
1.10413e-11
2.89031e-13
-1.44507e-13
-1.88816e-11
1.22261e-11
1.04181e-12
-4.46793e-13
5.58469e-13
7.79856e-13
-2.68727e-12
-8.51443e-14
-2.30871e-11
-1.33822e-14
-3.32946e-12
1.23934e-11
-1.93663e-12
-1.83384e-13
-8.62852e-12
0
-1.30686e-11
2.85967e-13
3.32641e-11
3.7568e-11
-1.98197e-12
7.20131e-13
0
-1.33548e-11
-2.50899e-13
4.79754e-13
5.81181e-12
1.40836e-13
-1.02974e-11
8.59109e-12
-2.07686e-11
5.42726e-11
-4.58088e-13
1.29971e-11
1.04428e-13
1.83654e-11
5.07893e-13
1.49839e-13
1.01629e-11
-1.20541e-11
2.19871e-12
2.5737e-13
9.80107e-14
6.31548e-13
1.52799e-13
-2.94407e-13
-3.7043e-11
7.29414e-13
-1.24732e-11
1.21717e-11
3.69579e-15
-6.71085e-12
1.75885e-11
-2.41789e-12
7.34117e-13
2.91805e-13
6.54466e-13
-4.37241e-13
-7.22568e-13
1.4891e-13
-1.48773e-13
1.85557e-11
1.39416e-11
-1.70498e-11
4.04591e-12
-3.92154e-12
-2.94576e-13
-1.488e-13
1.14677e-11
4.46681e-13
-3.42256e-12
0
-2.90671e-13
-2.89151e-13
-3.7587e-12
2.46983e-12
-1.0312e-12
1.56269e-11
6.10622e-12
4.59933e-13
6.09361e-13
8.42177e-12
2.15667e-11
-2.6393e-13
7.33839e-12
9.13314e-13
1.37918e-12
9.69079e-12
-2.83768e-12
1.21705e-11
2.97772e-13
-4.16699e-11
-2.92361e-11
-4.58292e-11
2.82778e-13
-3.84303e-12
-3.91813e-11
2.50623e-11
2.41646e-14
9.28997e-12
8.1086e-13
-4.30006e-11
-5.20406e-11
9.07611e-12
-1.18575e-11
1.65715e-11
-2.94938e-12
2.84494e-11
-8.46282e-14
-8.89282e-12
3.01953e-12
4.10523e-11
9.22393e-13
-1.18743e-14
-1.1751e-13
-1.99881e-11
2.81878e-13
-9.98363e-13
3.46233e-14
4.25959e-14
-8.48953e-13
6.74511e-14
-1.77866e-11
-2.28743e-13
-7.69707e-14
-8.55776e-13
-2.08696e-11
-7.34055e-12
-1.34055e-11
-5.87161e-13
-2.21743e-11
-1.36157e-11
1.84027e-11
-1.24998e-11
-1.4891e-13
-4.46322e-13
3.82936e-12
4.0674e-12
3.61366e-12
0
3.77699e-12
-4.41876e-13
-1.48802e-13
-1.20637e-11
0
0
-2.94827e-13
2.91028e-13
2.89663e-12
-3.04128e-12
1.4547e-13
3.8319e-12
2.9768e-12
1.48946e-13
-5.66588e-15
5.67092e-13
9.31343e-12
-2.17134e-11
-6.32262e-12
-8.92521e-13
-8.17122e-14
1.06847e-12
2.20561e-11
-8.19633e-14
-9.85957e-12
2.72965e-13
1.67745e-12
-1.57054e-11
1.96707e-13
-1.48758e-11
-2.59258e-13
-1.36777e-11
-2.17238e-11
-1.08986e-11
-2.65377e-13
5.17152e-13
-1.03155e-10
3.51613e-13
4.44614e-14
9.8046e-12
-4.07025e-13
-4.2451e-11
4.46847e-14
6.92218e-12
2.69993e-13
-2.50899e-13
-1.32491e-13
7.20731e-14
-1.69702e-15
-1.12886e-11
1.66458e-12
-6.83467e-13
-3.41524e-14
3.93853e-12
9.55878e-14
3.39673e-13
4.43074e-12
-3.36314e-11
-2.09546e-13
1.10157e-11
-2.02886e-13
1.69714e-11
-7.98583e-13
-1.70447e-11
9.45434e-12
6.92169e-12
1.02406e-12
3.48999e-11
-1.30304e-11
1.48925e-13
1.48788e-12
2.06291e-12
5.81811e-13
-8.833e-12
-1.36116e-11
7.27251e-13
2.06297e-12
-2.9764e-12
-1.29588e-11
-1.08721e-11
2.97705e-13
-2.95036e-13
0
0
-2.61423e-12
2.91569e-13
1.47512e-13
-1.33998e-11
2.97947e-13
-2.81281e-12
3.1213e-14
1.17375e-13
4.1011e-13
-3.80113e-13
-1.16005e-12
-2.33813e-12
-5.49265e-13
5.35638e-12
-1.66955e-13
1.09072e-11
8.92472e-13
-5.12614e-11
-1.53243e-11
2.27069e-11
1.93746e-12
4.07105e-12
-1.99196e-11
-3.20453e-11
-4.73315e-13
2.08399e-12
-6.3291e-14
-4.77683e-13
8.29262e-12
-3.3882e-14
-3.59944e-13
-2.38117e-11
-4.10308e-13
5.2978e-13
4.62677e-13
6.38801e-13
2.37874e-11
-4.03035e-11
-8.95822e-14
2.10599e-13
4.61033e-13
4.53852e-13
-3.75836e-14
2.41325e-11
-4.37023e-13
6.65868e-13
4.98212e-13
-1.31188e-12
-2.46859e-11
5.58865e-14
-1.58224e-13
2.24552e-13
-1.20691e-12
4.22816e-12
-2.43206e-12
6.64459e-12
-1.76188e-12
8.25363e-12
4.8279e-13
-6.59044e-15
-5.9584e-13
1.84562e-11
5.89944e-13
-1.12243e-11
-3.9208e-12
0
3.20669e-12
1.43055e-11
5.65701e-12
-2.97966e-13
9.53299e-12
1.48879e-13
4.42564e-13
-1.45701e-13
4.49711e-12
-3.3365e-12
-1.45683e-13
5.60537e-12
-3.27595e-12
4.32059e-12
-7.50027e-14
2.31381e-13
-1.87672e-11
2.73219e-11
2.54293e-13
2.54946e-13
2.13357e-13
-1.82925e-11
-1.68722e-13
4.83227e-12
4.03554e-12
2.97807e-13
3.24402e-11
-1.93507e-11
-2.65132e-11
3.2366e-11
-3.12468e-12
3.37247e-11
1.78211e-11
4.13048e-13
-5.78852e-13
1.70805e-11
-2.11069e-12
2.23953e-13
-3.26725e-13
-1.41324e-11
-1.6499e-11
-2.72068e-12
-1.77163e-11
1.44293e-11
8.27301e-14
-3.45517e-13
3.6136e-11
-7.44732e-13
-4.72398e-13
-1.40848e-13
-1.88638e-13
1.86572e-13
1.14723e-15
-1.45314e-11
4.653e-13
0
-8.51979e-14
5.85769e-13
8.04838e-13
2.09748e-13
3.37345e-13
3.94564e-12
-8.02374e-12
1.10561e-11
-1.18131e-11
5.87389e-12
8.05353e-13
1.31827e-13
6.93469e-14
-1.48979e-13
-1.02718e-11
-1.10603e-11
3.93252e-12
-7.25208e-13
0
-3.20418e-12
1.47472e-13
1.48896e-12
-1.49003e-13
1.57888e-11
2.82823e-12
-3.98032e-12
-1.20701e-11
-8.3919e-12
-7.95787e-12
1.13428e-11
-2.04906e-11
1.33988e-12
0
-3.1829e-14
-7.29237e-13
-9.99639e-13
6.57929e-12
6.36723e-12
3.28865e-11
5.54001e-12
1.67209e-11
7.92393e-12
7.03776e-13
-1.58069e-11
8.9366e-13
-8.85359e-14
-9.56922e-13
2.87721e-12
-3.45098e-11
-3.1126e-12
-3.29331e-11
-3.01964e-13
6.50433e-14
-4.77524e-13
-2.02857e-13
-1.27422e-11
4.22093e-12
-8.15685e-13
-1.06297e-11
2.73739e-13
-3.68269e-13
-2.65312e-11
5.12226e-12
5.46523e-13
-3.33585e-13
-2.13491e-12
2.29637e-11
-3.22681e-13
5.16934e-14
-2.56739e-13
-1.34217e-12
1.44019e-13
-1.96121e-11
1.98381e-13
3.78655e-13
9.88774e-14
-8.77822e-12
-1.17468e-11
1.02839e-11
-2.06443e-11
8.47393e-12
1.1982e-11
6.07216e-12
-8.42857e-12
-5.0277e-12
2.14073e-11
1.0386e-11
1.49856e-11
1.48969e-13
3.57207e-12
-3.68387e-12
-2.03507e-11
-1.44661e-13
7.37773e-12
-3.63406e-12
-6.63127e-12
0
1.22179e-11
1.48964e-13
1.48847e-13
-1.31153e-11
1.55497e-11
1.44573e-13
4.91563e-12
-3.05208e-12
1.0906e-11
2.97742e-12
4.46931e-13
1.33134e-13
-1.9236e-14
-1.17997e-11
2.87399e-11
2.91445e-13
1.08877e-11
6.53164e-13
-1.67249e-11
1.88349e-11
9.84163e-12
-1.07343e-13
2.97761e-13
-1.72894e-11
-2.30286e-11
1.86745e-12
-3.8775e-11
1.77061e-11
7.15176e-11
-1.75202e-11
-3.36935e-13
6.24386e-14
-3.60162e-13
-1.73963e-12
-2.4303e-13
-9.8241e-12
-1.23672e-13
-4.58783e-13
3.42079e-11
-1.75957e-11
9.57116e-14
-1.11177e-11
8.54293e-13
5.41888e-11
1.76647e-11
-1.36821e-11
2.09512e-13
-2.13157e-13
1.60017e-12
-1.92599e-13
-8.69084e-12
1.13054e-11
3.75391e-13
1.67261e-12
-5.26016e-13
1.40162e-11
-1.14005e-13
8.1649e-13
-2.15945e-11
-1.72259e-11
6.15343e-12
3.66976e-13
-1.28381e-11
8.98649e-13
-7.57841e-13
8.78007e-12
0
-8.92979e-13
8.69208e-12
4.50373e-12
1.98033e-11
-2.16824e-12
9.29798e-12
1.69427e-11
3.42385e-12
-1.49011e-13
-1.49022e-12
-3.87138e-12
3.97993e-12
1.45375e-13
1.44649e-13
-1.69248e-11
2.90812e-13
5.01264e-12
8.93492e-13
1.41574e-11
8.91578e-12
-2.78881e-13
-7.89458e-12
-3.36864e-13
-6.33555e-12
-5.39662e-12
2.41001e-12
-2.21007e-12
2.17403e-11
1.31719e-13
2.07439e-11
0
-1.81883e-12
-1.99312e-12
5.31587e-12
-4.15452e-11
1.01472e-11
2.304e-12
-4.40993e-11
-1.34982e-11
3.96392e-13
1.12664e-13
0
2.21224e-11
1.75303e-13
-1.00002e-11
7.28252e-13
5.89879e-13
-2.30441e-13
7.92792e-12
-2.82535e-13
-7.85911e-13
5.77452e-12
2.4556e-13
-5.50964e-14
1.70982e-13
5.53689e-14
4.11106e-11
-8.54811e-13
2.99658e-12
3.19937e-13
-7.10901e-12
2.14033e-12
1.17092e-12
1.68565e-11
-6.92178e-14
3.09105e-11
-3.3455e-12
7.48678e-12
1.31872e-11
-2.17272e-11
-1.44439e-11
-3.04162e-12
-1.8942e-13
-1.17931e-11
0
-9.52789e-12
-6.18986e-12
-4.06987e-12
1.37398e-11
6.65293e-12
1.88953e-12
-1.47378e-13
-1.57842e-11
-1.68445e-11
0
-9.68718e-12
3.69047e-12
7.2858e-13
-3.19144e-12
3.33672e-12
-1.45758e-13
3.5437e-12
0
1.01409e-11
9.45976e-12
-6.46886e-12
-1.70531e-13
1.58669e-13
-6.05868e-13
5.41928e-13
-8.86462e-13
-1.46694e-11
-4.28919e-13
1.05825e-11
7.03539e-14
2.59902e-11
-2.16379e-12
-3.07316e-12
-7.1117e-14
2.34204e-11
1.11364e-12
1.68285e-11
1.81191e-12
-1.48168e-13
3.47983e-12
-2.55659e-11
-1.73889e-11
-2.75739e-13
1.14654e-11
-1.49251e-13
8.43203e-14
-2.11706e-13
2.44935e-11
-6.55642e-13
-2.57532e-11
-1.26283e-14
3.73389e-11
-2.55013e-11
-2.1819e-11
7.97124e-15
2.3892e-13
5.52848e-13
-4.10308e-14
2.75017e-12
1.38646e-11
-2.79636e-11
1.1057e-12
6.35898e-13
2.93293e-11
9.92277e-14
-7.90327e-13
-1.73846e-11
-6.82624e-12
-2.68529e-11
9.45631e-12
-1.38451e-12
-2.07469e-11
-2.52335e-13
-1.63357e-12
-5.96477e-13
5.06608e-12
-5.3135e-12
1.1656e-12
4.35145e-13
-4.78656e-12
2.91388e-13
4.28015e-12
6.2595e-12
-1.86467e-11
2.98535e-13
1.94048e-12
0
3.52296e-12
-3.65911e-12
-2.92744e-13
-4.40469e-13
-4.00181e-12
-4.03015e-12
1.64183e-12
1.50052e-13
2.50423e-11
-1.00812e-12
2.11028e-11
7.23191e-12
-1.12482e-12
3.22412e-13
-8.85178e-12
-4.52229e-12
1.28126e-11
-8.64103e-12
-2.59479e-11
-7.60104e-14
-2.73227e-11
-6.09808e-12
4.37756e-12
2.10232e-13
1.14766e-12
-1.26669e-11
1.1188e-11
-1.09048e-12
2.61772e-11
4.16304e-11
1.5948e-11
-3.78407e-14
8.37054e-12
-5.34597e-11
-6.26861e-13
-1.75759e-11
7.59485e-14
6.86733e-13
2.82341e-11
-5.82535e-11
1.75028e-11
2.37216e-13
5.47154e-13
2.77894e-13
7.33416e-11
3.66186e-13
-2.07618e-13
-9.39024e-12
8.6446e-14
8.78863e-13
2.42852e-11
4.61766e-14
8.27963e-12
2.40251e-11
-2.26902e-11
-1.87023e-11
0
-7.02327e-12
-2.91147e-13
8.19469e-13
-5.21334e-12
-6.61957e-14
1.79087e-11
-3.8799e-12
1.03725e-12
2.01085e-11
-4.24409e-12
-1.46347e-13
-4.40309e-12
2.96337e-13
4.17925e-12
0
0
-3.73286e-12
-1.68174e-11
-1.4822e-13
5.33057e-12
0
1.24518e-11
5.95334e-13
3.73263e-12
-1.49211e-13
-1.76173e-13
5.68657e-13
-1.23027e-11
-2.54874e-13
-4.87626e-12
-1.08985e-12
2.53858e-11
1.29136e-11
4.75583e-12
8.86962e-12
-8.96163e-12
1.19492e-12
-1.39862e-13
1.17762e-11
-1.10778e-11
1.97757e-11
9.42489e-12
-1.7413e-11
-4.53552e-12
3.04132e-13
-1.37234e-13
2.17797e-13
-1.48853e-12
1.95126e-11
-8.96184e-12
-6.70927e-12
1.74866e-11
-4.87296e-11
-1.96505e-11
9.95914e-12
-2.74609e-13
-2.01554e-11
1.04722e-11
1.54383e-11
1.1776e-13
1.5171e-11
1.67386e-12
-4.24258e-11
7.05986e-12
-1.06745e-11
-1.14013e-11
-8.12566e-14
2.49607e-12
-2.22663e-11
-1.08428e-11
6.23508e-13
5.75312e-14
0
5.03296e-12
1.10702e-11
-1.05397e-11
2.01739e-13
-8.46306e-12
-1.10693e-13
7.75716e-13
1.16366e-11
0
-1.29448e-11
0
1.48054e-13
-2.66494e-12
0
2.97592e-13
1.04504e-12
1.07447e-11
8.6354e-12
1.90571e-11
2.66006e-11
4.1536e-12
3.11393e-12
5.63514e-12
3.56033e-12
-1.26312e-11
-3.27532e-12
-8.78316e-12
9.1381e-12
2.99258e-11
1.16742e-11
1.76246e-13
-6.20131e-12
-3.837e-13
-8.5518e-12
-2.12893e-11
1.40291e-13
8.97576e-12
-9.66528e-14
7.31398e-14
-2.67351e-11
-1.20751e-11
1.26355e-11
-3.18998e-11
6.58967e-12
1.13511e-11
2.97139e-13
8.60353e-12
1.83923e-13
-2.96371e-13
2.5809e-11
2.73188e-11
-6.59134e-12
-3.39608e-11
-3.10267e-11
4.91795e-11
-5.74103e-13
2.51873e-12
-9.66036e-14
1.83973e-11
-9.79177e-13
-2.13907e-11
5.66415e-12
2.1751e-11
1.79934e-11
3.45194e-11
1.83327e-11
4.30697e-13
6.42517e-14
-1.8737e-11
2.96988e-13
-2.08104e-11
-6.18104e-12
-2.65403e-13
-3.02345e-11
-4.47345e-11
-1.82614e-11
-1.12894e-11
1.53729e-12
5.17333e-13
-2.63567e-11
4.05868e-11
-3.03549e-13
-2.76019e-11
3.01634e-11
7.12054e-13
-2.20645e-11
1.37208e-12
-3.94457e-13
-2.41795e-11
3.64433e-11
-2.33525e-11
3.5719e-11
3.97789e-11
5.09311e-11
-9.6167e-13
2.30039e-11
-1.96848e-13
-1.6417e-12
4.85293e-12
-1.86347e-11
-1.50388e-11
-2.52473e-12
-4.19393e-11
2.23841e-11
2.43735e-13
-3.00538e-13
-1.68896e-12
-1.48846e-13
4.46497e-13
-1.33709e-12
3.70818e-12
1.883e-11
-8.89643e-13
1.82439e-11
3.12014e-12
-2.08395e-12
0
4.45413e-13
1.1425e-11
-9.92737e-12
0
8.88348e-12
2.279e-11
-1.27294e-11
-1.95676e-11
-2.46317e-11
-2.12295e-11
-2.72622e-13
1.18038e-13
1.40694e-11
-3.1541e-12
5.21324e-12
3.3205e-12
3.82169e-12
-1.53907e-11
-9.14872e-12
-1.07248e-11
-6.56493e-13
-1.119e-11
1.10776e-11
4.06112e-13
-2.71806e-11
-8.56903e-12
1.45491e-11
-6.88976e-15
1.54944e-11
5.5566e-13
1.87983e-13
-1.61934e-13
2.02041e-11
-2.39651e-13
2.56463e-11
-3.2049e-13
2.62553e-11
-4.18303e-13
6.20169e-13
1.88765e-13
-1.12804e-11
2.62256e-13
-2.11807e-11
1.56481e-11
5.46221e-12
-3.10271e-12
-4.92818e-11
-1.29457e-12
1.03846e-11
1.01278e-11
2.21559e-13
1.18268e-11
9.55833e-14
-1.43204e-11
4.26524e-12
3.10292e-12
2.35617e-11
8.82313e-13
-2.77558e-13
1.52897e-14
2.19567e-11
-3.94656e-12
-3.92242e-13
-6.79231e-12
-1.71729e-11
9.76508e-13
-8.68213e-13
2.94094e-13
-1.36434e-11
2.78543e-13
-3.9447e-15
-1.61318e-11
3.49208e-13
1.87528e-11
-1.94019e-11
-1.17674e-12
1.39642e-12
1.44803e-13
-3.57649e-13
2.70992e-13
-2.21692e-11
3.14715e-12
-4.18362e-14
3.62446e-12
1.94938e-11
-3.76265e-12
1.18004e-12
-5.16928e-12
-1.92877e-11
1.46603e-12
-1.11334e-11
0
-3.85345e-12
-8.88015e-12
1.33242e-11
1.12461e-11
2.95997e-13
1.12595e-11
1.78033e-12
1.18771e-12
-1.18562e-12
-4.44367e-13
0
2.66282e-12
0
1.47916e-13
-1.47938e-13
-1.48023e-13
-5.92489e-13
-5.92785e-13
3.8287e-12
-4.6892e-13
1.3001e-13
2.76224e-12
-3.4911e-14
1.16773e-11
8.13333e-14
-8.91585e-12
-6.90278e-13
-5.91183e-13
-9.21467e-12
9.56946e-12
-8.19076e-14
-2.6646e-12
-1.28084e-11
-1.11325e-13
9.80391e-14
-4.46275e-14
3.66077e-13
-4.41352e-14
-5.1808e-12
-1.28026e-11
4.24935e-15
-1.19712e-14
6.22641e-13
-1.17656e-11
-1.55384e-13
8.46231e-12
-1.16014e-11
-1.29971e-13
9.5038e-12
-8.90914e-12
-1.14935e-11
2.92734e-12
1.28617e-11
3.71088e-13
-8.2624e-12
1.2606e-13
-3.57284e-13
1.20187e-13
7.71371e-14
1.28559e-11
-1.38771e-11
-8.53407e-14
-1.17123e-12
5.43187e-14
8.48777e-12
5.79252e-13
1.19544e-11
9.624e-14
9.42451e-12
-4.72764e-13
1.12429e-11
-6.63063e-15
-7.63574e-14
-1.78706e-13
-5.18057e-12
-3.69569e-13
-8.55501e-14
7.33331e-14
-2.22093e-13
-6.38135e-14
1.44127e-11
1.01468e-11
6.25144e-13
-6.07288e-13
5.83673e-12
2.48802e-13
2.64935e-13
5.04643e-13
-9.04264e-12
7.33376e-15
-4.10942e-13
-2.52435e-15
-8.12316e-14
1.05121e-13
1.40665e-11
-4.5025e-14
-2.12049e-13
-3.13801e-13
-1.48188e-13
-1.48109e-13
-7.40029e-13
-1.02069e-11
1.47915e-13
1.47906e-13
-1.34609e-11
-4.43998e-13
0
-2.96396e-13
0
1.48005e-13
-9.17269e-12
9.0223e-12
-2.95791e-13
-1.47896e-13
5.02894e-12
9.17301e-12
5.92028e-13
1.48051e-13
-9.08284e-12
-2.83633e-14
-8.71936e-12
-1.40866e-13
-2.03783e-13
-2.1952e-13
1.10949e-13
8.3773e-13
-7.9877e-12
3.14069e-13
-8.95342e-12
-2.88609e-14
3.76758e-13
-2.01088e-11
-8.30239e-12
-3.48013e-12
-8.54768e-12
-1.17409e-11
8.81001e-14
-1.05533e-14
9.68096e-12
-8.94834e-12
-9.4463e-12
-2.39559e-13
1.15869e-11
1.63178e-11
-4.48071e-13
7.70301e-12
8.80928e-12
1.27934e-12
8.92792e-12
-1.21441e-13
-1.02652e-14
1.13199e-11
8.84968e-12
3.60567e-12
3.29827e-12
1.2612e-11
6.33056e-14
-5.16008e-13
-6.66943e-13
-3.06434e-12
8.46192e-13
1.89166e-13
-1.19033e-11
-2.75929e-11
-1.13085e-11
1.13625e-12
-9.23748e-12
-1.00204e-12
-1.90803e-13
2.67834e-13
-4.50893e-14
-9.40372e-14
2.86887e-13
-6.45465e-13
-3.44339e-13
-1.16166e-12
2.68162e-14
9.58731e-12
2.01556e-13
3.14857e-13
-2.22358e-12
-9.52382e-15
1.24659e-11
1.28105e-11
1.20459e-11
-1.88277e-13
9.34028e-12
-8.2457e-14
5.22382e-14
1.19887e-13
-7.52141e-13
9.28943e-14
-6.51318e-13
-1.02311e-11
-3.82135e-13
-1.13607e-11
1.43503e-11
-9.20106e-12
-1.48043e-13
1.13957e-11
1.03557e-11
-2.95797e-13
-1.25705e-11
-1.05e-11
-4.437e-13
-1.09476e-11
1.40602e-11
0
-2.11597e-11
-1.21315e-11
7.3958e-13
0
5.91557e-13
-1.06481e-11
0
5.91681e-13
9.02488e-12
2.95944e-13
-1.84241e-11
-1.00711e-11
1.99395e-13
-8.48363e-12
-8.32093e-12
-8.5649e-12
-2.0228e-13
1.20171e-11
3.54131e-14
3.89282e-13
1.08587e-11
1.2273e-11
-5.91597e-13
-8.80314e-13
-1.26358e-11
-2.76837e-12
2.0721e-14
3.98462e-13
-8.94279e-12
5.40958e-13
-2.13884e-12
1.02587e-11
-3.54495e-13
8.41655e-12
-2.51574e-12
8.99963e-12
-2.56277e-13
-2.17105e-11
8.48881e-12
3.30999e-12
1.23483e-12
1.13099e-11
-5.15926e-14
-1.81994e-14
1.24113e-11
1.35306e-11
-2.12533e-14
-2.86252e-13
1.41246e-13
8.15312e-12
1.16355e-11
4.34602e-14
1.00403e-11
2.66398e-13
1.09552e-11
-1.15659e-13
-4.25174e-13
1.01336e-11
2.40519e-12
-3.33723e-12
-3.41585e-13
-1.12494e-11
-1.72853e-13
-3.58482e-14
-1.2216e-11
-1.35434e-12
4.86342e-14
-8.02125e-13
-3.83948e-13
-8.77824e-12
2.39325e-13
-1.65627e-13
-9.59643e-12
1.16373e-13
6.36864e-13
8.23498e-14
2.28796e-13
2.2006e-13
-2.07599e-11
-2.48501e-15
-1.78021e-13
2.46167e-13
-2.05921e-13
-9.07357e-14
1.17648e-11
1.11905e-12
2.9318e-12
4.94726e-13
6.0909e-13
1.97012e-14
0
4.43819e-13
1.4791e-13
2.95779e-13
0
0
2.80996e-12
0
9.32058e-12
2.95943e-13
-8.94949e-12
-6.65729e-13
7.39659e-14
-3.69593e-13
8.57696e-12
-5.02791e-12
-5.17485e-13
-7.39032e-14
-2.2181e-13
7.37721e-14
-8.65177e-12
-1.40432e-12
7.39413e-14
-9.24258e-12
-8.87269e-13
-1.13871e-11
-9.53897e-12
-7.3885e-14
7.42186e-14
2.22501e-13
2.21045e-13
5.16808e-13
-2.95708e-13
1.48213e-13
-9.90869e-12
4.88055e-12
5.91776e-13