/*--------------------------------*- C++ -*----------------------------------*\
  =========                 |
  \\      /  F ield         | OpenFOAM: The Open Source CFD Toolbox
   \\    /   O peration     | Website:  https://openfoam.org
    \\  /    A nd           | Version:  10
     \\/     M anipulation  |
\*---------------------------------------------------------------------------*/
FoamFile
{
    format      ascii;
    class       volScalarField;
    location    "0.5";
    object      gradTz;
}
// * * * * * * * * * * * * * * * * * * * * * * * * * * * * * * * * * * * * * //

dimensions      [0 -1 0 1 0 0 0];

internalField   nonuniform List<scalar> 
46825
(
1.49086e-13
0
-1.48932e-13
1.48716e-11
4.45697e-13
-1.06968e-11
1.48719e-12
1.77236e-11
2.98155e-13
1.25244e-11
5.96213e-13
-1.4893e-13
1.48581e-13
-1.52464e-11
1.01876e-11
1.47648e-13
-4.44079e-13
1.575e-11
-2.97867e-13
-7.45312e-13
-1.2508e-11
0
-2.73273e-11
-1.66822e-11
-2.90893e-13
-5.81788e-13
-1.46336e-13
-1.01925e-11
-7.42861e-13
-5.95649e-13
-4.46072e-13
0
-5.56058e-12
1.91478e-11
4.13248e-12
3.56248e-12
-4.31903e-13
-2.28275e-11
0
-5.94772e-13
1.21811e-11
2.95287e-13
-1.00364e-11
-2.8502e-13
4.502e-12
-4.36129e-12
-1.42508e-13
-2.13817e-11
1.62405e-12
-1.18838e-12
-1.24797e-11
1.4767e-13
-2.40061e-11
0
4.2212e-12
-1.84324e-11
1.18306e-11
0
1.47664e-13
2.97125e-13
-1.04116e-12
2.96157e-13
-1.33254e-11
-1.59904e-11
6.1298e-12
-1.85318e-12
7.20266e-12
4.39289e-12
4.44217e-13
-8.92385e-13
-4.46889e-13
0
-2.95663e-13
-1.62546e-11
-8.73067e-12
-2.91023e-13
-2.92875e-13
1.71486e-11
-2.03647e-11
2.97917e-13
-6.85861e-12
-1.48984e-13
1.14459e-11
-1.48082e-13
-1.47687e-12
1.24058e-11
4.44253e-13
-1.38246e-11
0
5.96405e-13
0
2.98193e-13
1.48959e-13
7.43695e-13
-1.04007e-12
1.48584e-13
5.94981e-13
1.19174e-12
0
-1.32722e-11
1.70085e-11
-1.49346e-13
1.53816e-11
1.5819e-11
-2.98375e-13
-1.10398e-11
2.02961e-11
6.1229e-12
-1.49359e-13
0
-1.59768e-11
1.12218e-13
7.01473e-15
1.29925e-12
3.97707e-12
1.70719e-12
1.44593e-14
1.93106e-11
-3.74075e-13
-7.46658e-13
-8.06157e-12
7.07207e-14
2.97971e-12
-1.72009e-11
2.95805e-13
-2.27675e-11
2.95934e-13
9.20937e-12
-4.70652e-13
-2.98595e-13
1.58145e-11
4.91737e-12
0
4.71374e-11
2.90624e-13
1.16147e-12
-1.456e-12
-1.56144e-11
-3.75746e-12
1.56656e-11
1.28276e-11
8.41764e-12
3.0465e-11
-8.71846e-13
2.87475e-13
-2.87087e-13
1.44174e-12
-3.25472e-11
-4.38163e-13
-2.07327e-11
-1.25305e-11
9.30965e-12
-8.57486e-12
2.49724e-11
-8.3256e-12
-1.80605e-11
2.88005e-13
0
7.48602e-13
-1.49166e-13
-8.95413e-13
-2.61653e-11
-1.27291e-11
-1.54403e-11
5.76776e-13
-2.01606e-12
-6.65171e-12
2.32008e-11
4.62309e-12
-4.47681e-13
-4.4803e-13
2.13162e-12
-8.91694e-12
-1.44465e-11
8.79877e-13
-2.81349e-11
-2.55509e-11
1.7461e-11
1.08855e-11
1.1499e-11
1.4936e-13
-1.12246e-13
4.88293e-12
4.83485e-12
5.36165e-13
-4.87571e-12
-5.76639e-12
-7.95392e-13
4.7145e-12
8.96163e-13
0
-4.48054e-13
1.49332e-13
8.9537e-13
1.49176e-13
1.35753e-11
-1.49238e-13
4.48038e-13
0
1.49229e-13
4.4749e-13
-1.39338e-11
9.63797e-13
-7.8731e-14
-2.16296e-13
1.14287e-11
1.1135e-11
-1.18771e-11
1.08948e-12
-1.17861e-11
-2.40894e-11
0
2.98791e-13
1.79444e-11
4.19654e-12
-4.49882e-12
-3.32316e-11
-3.22573e-11
0
-2.82036e-13
2.35694e-13
-2.98736e-13
-2.0282e-11
-2.42172e-11
-2.13091e-12
1.64662e-11
-1.18375e-11
3.02548e-13
-3.00317e-13
-1.42741e-11
3.87281e-12
-1.34552e-11
9.08116e-12
2.49471e-06
2.09109e-06
2.1279e-06
1.94468e-06
8.71499e-08
9.03535e-13
1.22639e-13
-9.77858e-14
-2.997e-13
-3.80465e-11
2.09005e-06
-2.23973e-06
-2.30037e-06
-1.91748e-06
9.85577e-08
9.07584e-13
-1.23913e-11
-1.23763e-11
2.4589e-11
2.4387e-12
2.12681e-06
-2.29893e-06
-2.36493e-06
-1.95803e-06
9.90908e-08
2.42275e-11
1.21607e-11
-7.40548e-14
-6.28609e-12
-1.06244e-11
2.01861e-06
-1.90654e-06
-1.95712e-06
-1.61234e-06
9.82345e-08
-9.35933e-12
9.87804e-14
2.49445e-13
1.49325e-12
3.02761e-13
2.67399e-08
9.80992e-08
9.89858e-08
9.8271e-08
2.8792e-10
1.92425e-11
-1.75435e-12
6.67752e-12
2.98392e-13
3.21381e-11
1.80747e-12
-4.02321e-11
-1.63523e-11
2.05304e-11
2.13483e-11
2.99101e-13
-4.0543e-13
-4.47513e-13
-1.3364e-11
-1.16188e-13
-7.87016e-14
7.34549e-13
2.36756e-13
-3.92666e-13
1.08733e-11
1.86906e-13
1.37252e-11
-1.72618e-11
-9.02032e-14
-1.44969e-12
1.66125e-11
1.76748e-11
2.08894e-13
-5.07924e-12
1.33976e-13
1.34978e-11
1.48854e-13
1.5888e-11
2.97015e-13
-1.94244e-13
-1.02835e-10
-1.75189e-10
-1.53143e-10
-9.59883e-11
4.41579e-12
2.52306e-11
-2.13993e-13
-1.17896e-13
-2.30456e-12
2.5209e-09
-4.08983e-06
-4.19463e-06
-4.05537e-06
-4.19047e-06
-4.61757e-06
2.61655e-10
-1.23433e-11
-1.57013e-11
-1.16075e-10
-4.96843e-06
-225.117
-293.584
-294.218
-292.689
-0.30849
1.21083e-08
-2.85016e-11
1.19584e-13
-1.61854e-10
-4.17023e-06
-293.58
-406.388
-407.888
-404.094
-0.828388
-1.56476e-08
1.97255e-11
-1.23626e-11
-1.63184e-10
-4.11459e-06
-294.195
-407.873
-409.464
-405.497
-0.832029
-1.16978e-08
1.7473e-11
4.20852e-13
-1.44363e-10
-4.19338e-06
-291.674
-403.948
-405.487
-401.549
-0.825233
-2.35583e-08
-4.06776e-13
-2.44633e-13
-3.73692e-11
-4.60764e-06
-0.111592
-0.826168
-0.831899
-0.825177
-0.107683
1.56616e-08
-1.22177e-11
-1.17566e-11
2.96711e-13
2.47873e-10
1.78534e-08
-1.42655e-08
-1.19242e-08
-2.2394e-08
1.58704e-08
3.09323e-11
-1.4684e-11
-1.33927e-12
5.51704e-13
-1.25452e-11
2.01083e-13
7.11621e-12
-1.33784e-11
6.62584e-13
3.46627e-12
-1.80459e-13
1.05672e-11
0
2.0541e-12
1.3484e-11
2.27784e-13
-6.24166e-14
-1.1436e-11
-1.10442e-11
1.60015e-13
-1.13457e-12
2.97342e-13
3.85786e-11
2.96347e-13
2.74556e-11
1.14358e-09
2.26926e-09
2.22037e-09
2.23029e-09
-2.90079e-11
-2.57795e-11
5.97048e-14
2.47528e-13
3.26719e-12
6.17538e-09
-0.00147585
0.0139164
0.0140859
0.013712
-0.000126092
1.6911e-09
1.45992e-11
-4.02048e-12
5.3689e-10
0.00685357
2.58672e-06
-1.38798e-11
5.17678e-13
2.27574e-09
0.0139235
7.67508e-06
2.95817e-11
1.23673e-11
2.18729e-09
0.0140379
7.8385e-06
2.31551e-12
-1.16976e-11
2.26074e-09
0.0137103
7.27789e-06
-1.17081e-11
-2.38208e-14
-2.403e-11
-0.000116739
-2.26202e-07
-1.01899e-11
-2.16252e-11
-2.96158e-13
1.90511e-09
4.5443e-06
7.74679e-06
7.86574e-06
7.26781e-06
-2.25255e-07
-3.03923e-11
2.59256e-13
4.4586e-13
2.36562e-11
-1.53646e-11
-2.94074e-13
7.55065e-13
9.70202e-13
2.54823e-13
-2.69754e-11
-1.18519e-11
1.1892e-11
-1.14472e-11
-1.22127e-11
4.32561e-12
-1.72541e-11
-1.70053e-11
-1.23685e-13
-3.00921e-11
-2.64599e-13
-2.49839e-11
0
1.81057e-11
-2.97272e-13
-2.59164e-11
8.96243e-11
5.51043e-10
5.19667e-10
5.2446e-10
-5.50961e-12
2.70904e-11
-6.03794e-14
-4.3851e-12
1.73475e-13
-4.69157e-09
0.000331139
0.000448555
0.000449695
0.000447551
-8.11118e-06
2.8191e-10
1.11421e-11
1.5364e-11
9.25111e-11
0.000204069
1.0848e-06
1.29215e-11
1.56583e-13
5.09257e-10
0.000448889
6.0321e-07
5.69401e-14
1.2804e-11
5.21056e-10
0.000449686
5.57921e-07
-1.75004e-11
-1.07176e-12
5.10139e-10
0.00044756
4.66371e-07
7.517e-13
-4.47592e-13
3.26704e-11
-3.65151e-06
-1.42955e-08
2.20603e-12
1.17079e-11
-2.97733e-13
2.13178e-10
2.69094e-07
5.29042e-07
5.5805e-07
4.66314e-07
-1.7583e-08
-2.43332e-11
1.38611e-11
8.92018e-13
-4.47604e-13
2.90675e-11
-4.83621e-14
-2.34682e-11
-7.52954e-13
-1.87481e-13
3.05613e-12
-6.83888e-14
-1.04088e-11
1.48749e-13
3.12838e-11
-1.42314e-11
-2.90691e-13
3.97845e-13
-2.04471e-13
-5.59051e-13
-1.45035e-11
1.35947e-11
-1.48796e-13
-1.48068e-11
2.35247e-11
7.81882e-13
2.10729e-11
1.32241e-10
1.31769e-10
1.52227e-10
-8.14442e-15
-2.56584e-11
3.70087e-13
-1.52449e-11
2.24984e-13
-7.7951e-09
8.09501e-05
0.00015104
0.000100929
0.000150614
-3.34298e-06
8.72426e-11
4.20766e-13
9.25656e-13
-4.389e-12
7.98666e-05
6.57801e-08
1.43812e-11
-1.19397e-11
1.27542e-10
0.000151128
9.71212e-08
-1.70034e-11
9.80085e-14
1.13893e-10
0.000151239
7.03837e-08
-1.42224e-11
1.29081e-11
1.44326e-10
0.000150547
-2.61901e-08
1.10674e-11
1.81518e-13
-1.27317e-11
-1.29463e-06
4.62872e-09
1.05608e-11
2.16984e-11
5.96655e-13
-8.93385e-12
3.94247e-08
6.03175e-08
7.80959e-08
6.33791e-08
-3.10028e-09
2.4693e-11
-4.14802e-13
1.48761e-13
-2.39917e-11
1.10907e-11
9.53675e-14
-1.96532e-11
-4.20004e-13
-5.41516e-13
1.57147e-11
1.23426e-11
-1.2647e-11
2.73836e-11
1.24639e-11
-1.87975e-11
1.52277e-11
1.31674e-11
2.4257e-13
3.26369e-11
8.02047e-13
1.14762e-11
-5.95465e-13
-1.72981e-11
-2.95011e-11
1.64323e-12
4.68585e-12
4.0107e-11
1.4065e-11
1.98821e-11
-4.34688e-13
-1.49282e-12
-7.95514e-13
-1.31827e-11
3.28238e-13
2.07727e-09
4.01265e-05
0.000151352
5.0886e-05
0.000100805
-3.75736e-06
3.30644e-11
4.15599e-13
-3.35571e-12
1.02477e-11
1.05664e-06
-8.21981e-09
-3.31526e-13
-1.06392e-13
5.26894e-11
0.000151289
-2.49676e-08
-8.42364e-14
1.16979e-11
6.44541e-11
5.08894e-05
-2.77356e-08
-1.24766e-11
5.6673e-13
2.8357e-11
0.000150837
-5.92411e-07
-2.01349e-11
1.09987e-13
-2.8656e-11
-7.45837e-08
2.75736e-08
-1.04428e-12
5.16109e-14
-8.95941e-13
1.57941e-11
-2.29827e-08
9.80089e-09
-2.0057e-08
-8.07354e-09
-1.06808e-09
0
1.77817e-13
2.97672e-13
2.54306e-14
-4.48005e-12
-1.84476e-13
1.68013e-11
4.29474e-13
-4.30706e-13
-6.80436e-12
1.28756e-11
-1.48862e-13
-4.46642e-13
-1.90898e-11
3.67112e-14
6.77568e-14
1.23006e-11
-1.49522e-13
6.48735e-13
1.46085e-11
-1.37612e-11
1.48922e-13
-4.38883e-13
5.66327e-12
-1.73385e-12
-2.98722e-11
-2.39481e-10
-2.06874e-10
-2.16663e-10
1.20953e-12
2.09035e-12
2.49897e-13
1.52698e-11
-2.40596e-11
1.14481e-09
-8.18805e-05
-4.79825e-05
-9.83609e-05
2.06522e-06
-3.83521e-06
-1.21329e-10
-8.54514e-13
1.12655e-11
-1.17114e-11
-8.33434e-05
-2.50242e-07
-9.00069e-14
1.22672e-11
-2.31249e-10
-4.79832e-05
-5.16489e-07
-5.93239e-13
-1.42744e-13
-2.5958e-10
-4.81436e-05
-5.28624e-07
9.2601e-13
-1.50089e-11
-2.18682e-10
-4.7778e-05
-2.44198e-08
-8.57904e-14
1.40123e-13
9.72035e-13
8.49451e-07
-1.07492e-07
-6.99436e-14
-5.35747e-14
-2.29975e-11
-1.37569e-10
-2.35739e-07
-5.29586e-07
-5.27393e-07
-4.53243e-07
1.13854e-08
-4.85512e-15
-6.54282e-13
-1.48893e-13
1.31082e-11
3.33693e-12
-1.69759e-11
1.81423e-11
1.50576e-12
8.03382e-13
-1.94368e-11
-5.58049e-13
1.48915e-13
-3.4252e-12
-1.80081e-11
-7.67143e-14
-1.48941e-11
-1.29254e-11
2.36732e-14
1.27677e-12
-5.39833e-13
-2.80428e-13
5.95841e-13
1.53312e-11
3.27886e-12
-1.22636e-12
5.83548e-11
4.72521e-11
1.16326e-10
-8.32313e-11
3.53104e-12
-1.4929e-12
1.08191e-12
1.33518e-11
2.37456e-11
8.30807e-10
-0.00453299
-0.0105352
-0.010701
-0.0104693
5.4368e-05
-3.08386e-10
3.86686e-13
-1.10684e-11
4.04579e-11
-0.00461224
-3.22045e-06
1.21957e-11
-9.12845e-14
5.4877e-11
-0.0105351
-5.2823e-06
-1.82844e-13
-1.23137e-11
1.27475e-10
-0.0107007
-5.36756e-06
1.19618e-11
-1.24343e-11
-8.82036e-11
-0.0103688
-4.88009e-06
2.00468e-11
3.85797e-13
7.23379e-12
6.00156e-05
1.03446e-07
2.32513e-13
-2.8602e-14
2.38926e-11
-3.46733e-10
-3.22249e-06
-5.29432e-06
-5.36514e-06
-4.94414e-06
1.07565e-07
-3.01161e-13
9.20532e-13
0
2.60776e-13
-1.22296e-11
3.92557e-13
3.43699e-13
-1.01139e-11
-1.62132e-13
-7.21981e-13
-1.29484e-11
7.44784e-13
-2.97885e-13
6.4756e-13
-2.85292e-14
-4.44908e-13
6.40988e-12
1.25776e-11
2.80573e-13
1.35736e-11
-1.23681e-11
-1.63864e-12
-9.36598e-13
-3.10012e-11
-1.66579e-13
2.23074e-11
-2.64798e-11
2.14974e-11
-2.37928e-11
2.0831e-13
1.79157e-12
-5.33687e-13
-2.39532e-13
-3.23595e-11
1.68195e-10
1.74927e-05
1.45812e-05
1.46564e-05
1.47038e-05
1.5847e-05
2.55894e-10
4.64701e-13
-1.20134e-11
-2.64136e-11
1.72832e-05
-1.52612e-08
-1.39178e-11
1.54245e-11
-9.4142e-12
1.45866e-05
-1.83394e-08
1.84973e-13
3.86072e-13
-2.94467e-13
1.47042e-05
-1.81508e-08
-6.95343e-13
1.42154e-11
-8.81131e-13
1.47955e-05
-1.87136e-08
-1.38074e-11
1.79529e-11
1.77669e-13
1.59806e-05
4.64532e-09
-1.2425e-11
2.13937e-13
-1.19412e-12
2.36807e-10
-1.52676e-08
-1.83857e-08
-1.81916e-08
-1.87775e-08
4.65862e-09
2.3487e-11
1.65746e-13
2.97907e-13
9.88626e-13
2.01842e-13
1.67668e-11
7.94407e-13
-1.3879e-12
-1.07001e-12
1.98108e-11
-1.57385e-11
1.48964e-13
-1.23623e-11
-1.03148e-11
1.911e-13
-8.05891e-14
-1.1814e-11
1.10503e-11
-1.84368e-11
1.85829e-13
1.8464e-14
0
-1.56304e-11
2.8025e-11
1.44116e-12
-2.86893e-11
2.60735e-11
-2.46285e-11
2.34055e-11
5.61759e-13
-3.2253e-11
-6.59994e-14
-3.96239e-14
3.23601e-11
-6.11983e-13
-5.79988e-13
1.17621e-12
-8.24601e-12
4.93259e-11
-2.74089e-13
4.36941e-12
-6.61948e-14
-6.03015e-13
2.57608e-11
-5.51054e-11
1.55761e-12
-1.19523e-11
-3.51908e-14
0
-2.3523e-11
-4.11388e-13
-5.24777e-13
-1.38156e-13
5.86377e-13
-5.06538e-11
-1.05188e-13
1.45675e-13
1.21434e-11
2.60381e-11
2.34885e-12
1.4158e-12
1.26578e-11
-2.91991e-13
5.17525e-14
7.50758e-13
-9.05959e-12
-1.77009e-11
1.23268e-11
8.95918e-13
-1.03962e-11
9.95121e-13
3.69661e-11
3.42944e-11
3.08385e-11
2.34156e-11
-2.28979e-11
-1.43672e-12
1.23624e-11
8.49084e-14
-1.32983e-11
2.55742e-13
1.2152e-11
2.14724e-11
5.63498e-14
1.777e-12
2.6696e-13
-1.04268e-12
-5.95738e-13
-7.51829e-14
-1.51059e-14
-4.43688e-13
-3.0473e-11
-1.24846e-11
7.93069e-13
-1.37221e-12
2.86953e-11
1.19154e-12
7.89968e-13
2.62389e-11
-2.45384e-13
-2.19517e-11
2.9284e-13
8.79252e-13
-2.92454e-13
-4.5119e-13
3.01671e-11
1.66291e-11
2.26718e-13
1.65731e-13
-9.30598e-11
1.23772e-12
-2.99977e-12
5.90816e-13
-5.88804e-13
1.41473e-12
1.65027e-11
1.00727e-13
-4.41149e-14
-1.17076e-12
1.28099e-10
-2.60454e-11
2.53145e-11
-2.95716e-11
2.92826e-13
-4.51225e-11
-2.89047e-13
2.2681e-13
-5.86474e-14
-2.93069e-13
-1.77244e-12
3.18482e-11
5.08113e-15
1.97905e-13
-2.60278e-11
-1.1776e-12
1.31032e-12
2.65789e-11
-1.85075e-11
-3.16143e-13
-2.0975e-12
2.49319e-11
1.23524e-11
1.43122e-11
2.09071e-12
-3.47057e-12
-1.33369e-12
3.0163e-13
-2.13258e-13
-5.24751e-11
-2.3055e-11
-3.01411e-13
-2.34658e-13
0
-9.08573e-13
2.4782e-13
3.83381e-13
-6.08584e-13
-5.83252e-13
-1.51363e-11
1.44312e-11
1.86182e-11
5.95761e-13
-4.02105e-12
2.76206e-11
3.86963e-13
6.37133e-13
2.83914e-11
-1.11867e-11
1.12393e-11
6.18705e-13
-1.10902e-13
1.45953e-11
2.71297e-13
-2.62384e-11
-2.9957e-13
2.75161e-11
-2.34315e-11
5.86273e-13
-2.92488e-13
7.9387e-13
1.19482e-12
-5.14986e-13
-1.75636e-11
-6.50314e-13
6.12329e-13
-4.45416e-13
-1.15885e-13
0
-9.4227e-12
1.12524e-13
-5.44987e-12
-2.5442e-13
3.3033e-12
5.85425e-13
2.15574e-12
4.76438e-11
-2.03371e-13
-6.57557e-14
2.92872e-13
-1.33571e-12
8.58627e-14
-3.6828e-14
1.81683e-11
-5.86243e-13
5.9099e-13
-3.20157e-11
-9.62352e-14
3.14381e-13
-2.92489e-13
6.77255e-11
-1.46879e-12
-1.25301e-11
2.77464e-13
-6.57833e-13
2.94472e-13
-2.54696e-11
2.92107e-11
-2.55142e-11
-2.38955e-12
-1.30939e-12
2.74792e-13
2.90861e-13
4.88894e-13
2.13252e-11
2.2028e-11
0
-1.10173e-11
-1.32546e-11
-8.58046e-14
1.35175e-11
-1.50824e-11
-1.23839e-11
6.71833e-12
1.60967e-13
-1.26522e-12
9.12949e-14
0
2.97866e-13
-2.74444e-13
-6.31573e-14
4.20536e-13
1.09176e-11
-1.0094e-13
-2.6101e-12
-1.28065e-11
-1.61214e-11
1.2064e-11
1.2326e-11
5.96263e-13
5.31844e-13
-5.85387e-13
2.34275e-11
-2.93085e-13
8.77348e-13
-4.5356e-14
-1.31412e-11
-2.78053e-11
-1.25987e-11
3.03944e-11
1.83689e-12
-3.96062e-13
-4.84864e-11
1.6547e-11
-5.88888e-13
5.39777e-11
-2.28463e-11
1.34627e-13
-1.98324e-13
-2.78053e-11
2.38139e-12
1.78068e-12
-1.11817e-11
1.31688e-11
-3.01623e-11
-5.91474e-11
-2.55316e-13
2.98841e-13
8.96421e-14
5.8615e-13
-5.90961e-13
1.82131e-13
-3.91453e-13
1.23211e-11
5.84888e-13
-7.24332e-11
-2.89918e-13
-1.27374e-11
1.95826e-13
2.92111e-11
5.44933e-11
-3.31631e-11
-1.63798e-13
-1.50177e-12
1.34394e-11
-3.25177e-11
-3.35084e-11
1.46794e-13
-7.0329e-13
3.50145e-11
-2.24943e-11
0
-2.5725e-13
7.44655e-13
2.16516e-11
9.12924e-13
-1.50655e-13
-1.68552e-11
-1.30996e-13
1.5942e-11
-1.35671e-11
1.51454e-11
-5.95741e-13
3.87245e-12
6.53627e-13
5.80618e-13
-1.49657e-11
-1.64391e-11
3.00958e-13
-1.14669e-11
-2.69955e-13
4.31968e-13
-1.42992e-11
3.19257e-13
-5.96164e-13
1.555e-13
2.2534e-11
2.04984e-12
3.01864e-11
2.92441e-13
-9.88383e-14
1.22416e-11
8.39604e-15
1.73105e-11
-3.01045e-11
2.6321e-11
-4.73202e-11
5.54019e-13
0
5.88424e-13
3.58164e-12
2.21389e-11
-2.53475e-13
-2.91689e-12
2.8679e-11
6.70317e-11
-2.19154e-11
-1.17041e-13
9.53133e-14
2.84037e-11
4.54164e-13
-8.7847e-13
3.08283e-14
-1.82969e-11
8.79208e-13
7.2027e-11
1.15148e-12
-1.9742e-13
2.53714e-13
-5.84861e-13
-2.94186e-12
-7.54511e-13
-3.63656e-14
-4.35344e-13
-2.94634e-11
-2.86247e-12
7.02477e-11
-1.12641e-11
1.29802e-11
-5.07571e-12
3.35133e-11
3.38862e-11
-5.77213e-13
3.76185e-13
-1.20959e-11
3.3433e-11
6.02478e-13
-3.85513e-13
2.97895e-13
-3.15416e-14
-2.12254e-13
1.4883e-11
-5.03422e-14
-1.81183e-11
2.00939e-11
1.43309e-11
8.29111e-14
-7.44742e-13
-1.48961e-13
-1.32544e-13
-6.37485e-14
-1.20104e-12
-6.38252e-14
-1.2637e-13
2.25541e-12
8.3909e-15
-5.40579e-13
-1.25147e-11
-8.90049e-13
2.98052e-13
2.65561e-11
-2.22865e-11
-2.73291e-11
-2.99996e-11
1.17351e-12
-8.82634e-13
3.10419e-11
2.28224e-11
1.88971e-12
-5.8035e-13
2.43961e-12
5.80618e-13
6.49929e-12
6.5673e-11
4.48491e-11
-3.08319e-12
-2.2273e-11
2.70217e-13
2.0782e-14
0
5.80667e-11
-1.81492e-12
-1.18678e-11
8.67892e-14
1.46926e-12
5.90829e-13
-2.56568e-11
2.71219e-13
-3.07888e-13
-6.76452e-12
-5.91658e-13
-2.60462e-11
5.20401e-13
-1.2008e-11
-8.80182e-13
4.66209e-11
-2.23847e-11
-1.29175e-11
-3.2951e-13
8.8271e-13
-1.44542e-12
-3.76801e-11
-2.37604e-13
-1.23895e-11
-8.0591e-12
-1.83928e-12
9.00706e-14
-5.40057e-13
1.00357e-13
-2.31112e-11
-3.5046e-11
-6.01805e-13
1.43912e-13
-2.97959e-13
-4.32957e-11
-1.01518e-12
1.25414e-13
1.75821e-11
4.10818e-13
4.20753e-13
-2.48295e-13
-3.87533e-11
1.48985e-13
1.48966e-13
1.93659e-13
-3.99653e-13
1.52975e-11
-1.57364e-13
5.36266e-13
1.59859e-13
2.68652e-14
1.12492e-13
2.98006e-13
5.74105e-15
5.96355e-13
-2.65626e-11
0
2.58646e-11
2.94175e-13
-2.96405e-11
-3.24775e-11
-2.98735e-11
-1.65722e-11
3.24611e-14
1.20647e-11
6.13733e-13
5.01971e-12
3.44461e-13
9.27564e-13
-5.13831e-13
-4.60453e-11
9.04707e-12
-1.30753e-11
-2.8235e-13
-2.93414e-13
1.17077e-12
-1.32172e-13
-1.51828e-11
-9.84503e-13
0
-4.74061e-11
5.01322e-11
1.45191e-14
-3.31851e-13
7.35384e-12
5.10964e-11
2.52415e-11
-1.22487e-11
-6.30513e-14
1.17385e-12
1.34154e-12
2.23755e-11
-4.56776e-12
-1.61077e-13
3.15113e-11
-5.60524e-15
1.91608e-14
5.69061e-13
-1.42829e-11
-5.97488e-13
1.3724e-11
-6.02901e-13
1.0503e-12
-1.63816e-13
2.17104e-11
3.0458e-12
3.01422e-13
2.2973e-11
1.51981e-11
1.28302e-11
-2.34481e-14
1.66594e-11
1.6062e-13
-1.12848e-11
-2.03329e-11
-2.70992e-11
-1.08209e-13
1.60921e-11
5.95812e-13
-1.09996e-13
1.37948e-11
8.2919e-13
2.97805e-13
2.18015e-13
-4.71868e-13
-4.8806e-14
-2.9245e-13
1.48993e-13
-1.2307e-11
2.80282e-11
-3.00219e-11
3.51518e-11
0
0
5.73285e-11
3.36108e-11
-8.06535e-12
-1.11819e-11
1.38139e-11
-1.2586e-11
3.06805e-12
6.10366e-11
-5.88765e-13
5.89762e-13
-5.87928e-13
-4.59042e-11
6.35615e-11
-1.39219e-12
1.3452e-13
5.85656e-13
5.85921e-12
-2.78336e-13
2.78818e-11
2.21869e-13
-2.37175e-11
5.88753e-13
-2.38555e-11
4.19522e-13
2.93149e-13
-5.86148e-13
2.35902e-12
-3.18406e-13
-6.64368e-13
2.03474e-13
-2.9247e-13
5.87926e-12
-6.10273e-13
5.82793e-12
2.33349e-13
-3.23154e-11
4.19503e-11
3.55081e-11
9.45477e-14
-3.63507e-15
-8.96187e-13
2.25336e-13
-2.41531e-11
3.83666e-11
6.76369e-15
-2.16731e-11
-1.23615e-13
-1.20555e-12
5.82733e-13
-2.97991e-13
2.1469e-11
1.23001e-11
-1.74643e-11
1.03268e-13
-3.89649e-12
-4.26885e-13
-1.87558e-11
3.90425e-12
-1.49e-13
0
-7.49578e-13
-1.42079e-13
-1.56788e-11
1.18373e-11
-1.48525e-11
-2.75536e-11
-4.5026e-13
-5.08594e-13
1.29634e-11
-2.94419e-13
-2.8326e-11
3.04126e-11
-3.45675e-11
0
0
-2.83697e-11
-2.9424e-13
7.46841e-12
3.11286e-11
-2.80626e-13
1.11857e-12
3.68293e-12
1.15239e-12
-1.9462e-11
-5.02269e-11
-5.35849e-11
4.62951e-12
5.19929e-11
4.15403e-13
3.97765e-12
2.92839e-13
8.51787e-12
-5.5787e-13
1.459e-11
-5.54776e-14
2.34229e-11
-1.22876e-12
2.68578e-11
-1.18439e-13
1.03053e-13
-2.43249e-11
0
-3.11578e-11
1.26982e-11
3.45642e-13
1.1698e-12
2.35537e-12
-1.42466e-13
5.17548e-12
-2.8067e-13
2.8474e-13
2.50923e-13
-7.12349e-11
-1.35905e-11
-7.53517e-12
2.98727e-13
1.0848e-12
2.39229e-11
-3.76946e-11
-1.0034e-15
-2.53283e-11
-1.3707e-12
1.50722e-12
-1.14482e-11
-1.53475e-11
-1.33601e-11
1.47473e-13
-1.6288e-11
-6.28595e-13
1.12454e-11
-1.6216e-13
1.25928e-11
6.47292e-13
-1.53479e-11
0
6.78781e-13
-1.37937e-11
-1.50455e-11
-1.18998e-11
1.97202e-13
9.03906e-13
-1.20598e-11
-2.69165e-11
-1.50548e-11
5.98592e-13
-2.53473e-11
-3.44816e-13
0
1.46432e-12
2.93116e-13
0
-8.82704e-13
-1.19502e-12
-5.91523e-13
-1.91571e-11
-4.4303e-13
-6.13853e-13
-3.50554e-11
4.71865e-11
-5.31836e-12
-2.94441e-12
1.86881e-12
-5.15303e-11
1.32548e-12
1.15898e-11
-2.92861e-13
7.05895e-13
1.81742e-12
-2.78383e-11
1.53571e-11
8.78473e-13
-1.32205e-11
-2.66455e-11
-3.46194e-13
1.1833e-11
5.39307e-11
-5.43665e-11
3.13423e-11
6.81686e-13
-1.85256e-13
-2.04731e-12
5.88888e-13
3.50047e-11
7.01086e-12
-1.20882e-11
-6.63566e-13
-9.05842e-13
3.62615e-11
3.94385e-13
4.23784e-14
4.42163e-11
2.49338e-11
3.88222e-13
-2.68291e-14
-6.16469e-14
2.57569e-11
1.08168e-13
3.43653e-11
-1.20039e-13
-1.44585e-11
1.38928e-11
-1.18445e-11
3.38963e-11
9.60445e-15
-9.74647e-12
1.12214e-11
1.88385e-11
9.61146e-12
-1.93783e-12
5.96492e-13
8.83419e-13
7.53952e-13
1.50787e-11
-1.16959e-11
1.41151e-11
2.74019e-11
1.25625e-11
1.24732e-11
-1.34245e-11
9.29191e-13
2.56531e-11
2.56386e-11
3.57336e-11
-2.04983e-12
2.93091e-13
-2.63217e-11
-2.94245e-13
5.97569e-13
-2.63486e-11
-2.16246e-11
2.67251e-11
1.84059e-12
-1.33333e-12
0
0
8.77185e-11
-1.30048e-12
-6.50512e-13
1.28595e-11
-3.92222e-12
2.63556e-11
-7.56811e-11
4.77934e-14
6.09002e-14
-1.07894e-11
2.57668e-11
5.30841e-11
-6.39085e-13
2.05407e-13
-9.7472e-14
-4.10296e-12
-3.54406e-12
-1.71811e-13
-2.023e-13
-1.43931e-11
1.16988e-12
0
-3.5207e-11
2.63979e-13
-1.80023e-11
1.30397e-12
-5.00819e-11
-3.62716e-11
1.2824e-11
1.02568e-11
-4.36229e-11
-5.34603e-11
-2.20652e-11
2.69531e-13
2.43051e-11
2.62258e-11
-5.10411e-13
-3.49611e-11
4.32652e-13
2.98322e-13
3.06945e-13
-4.46845e-15
6.09841e-13
6.62367e-13
5.33467e-13
4.13488e-13
-1.48473e-11
-1.52669e-11
1.49172e-13
1.49254e-13
-5.76654e-13
1.45882e-12
1.51207e-11
1.16429e-11
-2.18987e-13
-5.29842e-13
1.26371e-11
2.73117e-11
1.47785e-11
-1.30312e-11
-3.13478e-11
-2.5668e-11
-4.13802e-11
0
-1.46919e-12
2.63915e-11
-2.35695e-11
-2.54099e-11
1.20538e-13
1.64921e-11
-2.64652e-11
-1.22414e-12
7.67324e-13
4.17113e-11
5.88417e-13
4.92804e-11
6.2636e-11
-6.02317e-13
3.13437e-13
-1.17465e-11
-2.64077e-11
5.15014e-11
-3.34638e-11
1.20188e-11
-1.46632e-11
-2.55647e-11
-4.75565e-11
2.8164e-11
-5.88883e-14
-1.19905e-11
-2.73505e-11
1.17596e-12
-1.17633e-12
-1.26362e-13
2.35644e-13
2.37673e-11
-5.27656e-12
2.10402e-13
-2.51174e-13
-3.95684e-12
-8.42432e-13
-2.1321e-14
3.64602e-11
2.3883e-14
4.80332e-14
0
2.88172e-11
-1.27806e-11
1.75774e-13
-2.50826e-11
-2.62239e-11
1.71116e-12
-3.01277e-13
1.1992e-11
1.03002e-11
-3.51135e-11
2.21684e-13
-1.65804e-11
-4.31079e-13
1.31778e-11
-1.14833e-11
7.45567e-12
7.0427e-12
2.09024e-12
-1.2683e-11
-7.89443e-13
-1.6745e-13
8.34141e-13
6.88368e-14
7.02807e-14
1.98317e-14
1.54465e-11
-1.17555e-11
5.9689e-13
-9.28353e-13
-2.38932e-12
3.71335e-13
6.23488e-12
-2.97701e-13
1.78729e-12
-2.67584e-12
2.34605e-11
2.45248e-11
1.23337e-11
2.15533e-11
-1.02191e-11
3.05894e-12
1.05613e-10
5.5455e-11
-4.58945e-11
5.15985e-11
4.80317e-13
8.68645e-13
-3.9678e-13
1.13233e-11
1.60896e-13
-2.08113e-12
3.32314e-11
6.20333e-13
2.32639e-11
6.61929e-14
-1.30764e-11
-2.64594e-11
2.95013e-13
-2.55186e-13
5.41548e-13
5.98713e-11
0
4.2347e-13
1.41171e-11
-2.30352e-11
1.8883e-12
-1.49963e-12
1.86616e-13
1.81559e-11
3.662e-13
-5.90032e-11
7.42433e-14
-3.32809e-13
3.25253e-11
0
1.26701e-12
3.45942e-11
-1.20277e-12
1.80602e-12
8.99772e-13
-5.6999e-11
1.8092e-12
-1.39728e-13
0
-1.95728e-13
-1.86655e-13
-3.25079e-13
1.324e-11
2.97326e-13
1.34102e-11
1.49174e-11
1.47267e-11
-7.46291e-13
-7.44387e-13
8.14267e-15
-1.38286e-12
1.70132e-13
-1.79588e-13
-3.4647e-13
1.55814e-11
1.19085e-11
1.30879e-11
4.46635e-13
1.31968e-11
3.24405e-11
0
-6.73994e-13
-3.68823e-13
-2.96748e-13
3.26153e-12
-5.92869e-13
-2.97476e-13
-7.24716e-12
3.67596e-13
9.66761e-12
1.90531e-11
-1.27599e-11
5.31999e-12
7.65258e-12
2.40796e-11
-2.82776e-11
-7.80134e-13
-2.11045e-13
3.48299e-13
-2.42363e-11
5.89404e-13
8.96021e-12
-1.00768e-12
-2.22562e-11
-3.26588e-11
-1.71414e-12
2.69135e-11
-9.70548e-14
-6.29642e-13
4.51674e-13
-5.91464e-13
-9.80064e-12
-1.03467e-11
1.13936e-11
-1.00142e-11
-3.48544e-12
-2.9659e-12
1.89538e-13
1.0482e-13
1.19429e-13
5.20654e-11
-6.36473e-12
1.93692e-11
-6.51911e-12
7.50174e-12
-8.36546e-11
0
-1.23685e-11
1.35516e-11
1.06666e-12
7.80585e-11
-2.80321e-11
-2.70072e-11
-4.6147e-11
-3.78197e-13
-5.80745e-13
-2.31136e-11
-3.68913e-13
1.61944e-11
-2.96401e-13
3.76423e-11
-4.85729e-11
-6.79658e-11
5.80931e-13
2.72943e-11
2.27314e-12
2.92897e-11
-1.17697e-11
0
-2.32014e-11
2.93367e-11
-8.87153e-13
-2.31341e-11
2.55197e-11
-8.88941e-13
5.56185e-11
-1.78649e-12
-1.16366e-11
3.72179e-12
2.19033e-11
-1.58149e-14
-1.18416e-14
1.38302e-11
1.95869e-13
-1.19518e-13
-8.02717e-12
-4.28192e-14
-2.97813e-13
1.14319e-11
5.93528e-13
-1.18548e-12
1.4803e-13
1.47989e-13
1.1839e-11
-1.48024e-13
-3.83784e-11
-1.48378e-13
-5.93863e-13
-1.17203e-11
1.61774e-11
9.23247e-13
4.07274e-13
-6.87593e-13
-3.75036e-13
-1.24007e-11
2.95155e-13
9.23527e-12
4.45139e-13
-1.19993e-11
5.21401e-12
3.06446e-11
0
-4.37496e-14
6.90551e-14
-6.16529e-13
8.81762e-13
2.68874e-11
2.85797e-12
-1.21346e-11
3.81289e-11
-2.91961e-13
-1.23127e-12
2.95347e-13
-9.43804e-13
2.27272e-11
1.39147e-12
6.05882e-12
-2.9601e-13
-1.1836e-11
1.39817e-11
1.31456e-12
1.9519e-14
-9.79918e-12
-2.08979e-14
9.87759e-12
-2.47293e-11
4.49518e-12
-3.9953e-12
5.91831e-13
-6.14744e-12
2.52999e-11
4.54652e-12
5.26587e-12
2.54557e-12
7.18721e-12
2.41904e-11
-8.71748e-12
-1.18385e-12
1.64282e-11
4.90012e-12
4.63967e-13
2.20554e-11
1.09203e-12
2.66731e-13
8.01878e-13
-1.29439e-11
-9.41451e-12
1.48027e-13
7.40812e-13
7.67417e-12
-3.11589e-11
-1.42063e-12
-2.94384e-13
1.475e-12
-3.29468e-11
7.62471e-12
-4.56137e-12
-1.0966e-11
-2.07722e-11
3.63409e-12
-3.07263e-11
-6.32581e-12
9.23267e-12
-1.32567e-11
1.27812e-11
4.29868e-12
3.6283e-12
-1.48395e-13
-1.20252e-11
-1.58759e-11
8.10558e-14
-1.47993e-13
-1.34644e-11
-5.91861e-13
-1.33204e-11
0
-1.48379e-13
7.42413e-13
8.89222e-13
-1.4813e-13
-1.4802e-13
-1.47941e-11
9.76267e-12
0
-1.509e-11
-1.24334e-11
-1.48126e-13
-1.48201e-13
1.88111e-11
4.43948e-12
-7.39135e-13
1.24119e-11
1.93602e-11
-7.38931e-13
1.74351e-11
2.95634e-13
-1.49465e-11
1.7478e-11
7.40004e-13
-2.9564e-13
-1.4202e-11
-4.42665e-13
-4.43077e-13
3.69223e-12
5.16401e-13
4.61057e-12
8.86602e-13
1.27291e-11
0
1.13769e-11
-3.65192e-12
-4.10041e-12
-2.0358e-12
-4.18231e-12
-5.53853e-13
1.21679e-12
-1.47713e-13
1.4792e-13
0
-1.12316e-11
6.20295e-12
1.48061e-13
1.72075e-11
-1.11257e-11
0
-2.95067e-13
-1.32957e-12
-6.80295e-12
-1.03534e-12
-8.42375e-12
-1.63933e-11
8.77194e-12
-2.34384e-11
-1.23141e-11
1.47877e-13
-5.05236e-12
9.89738e-12
1.2275e-11
-1.77513e-12
-1.37412e-11
-9.59017e-13
7.23699e-12
1.41945e-11
1.47876e-13
1.29844e-11
3.79563e-12
5.16964e-12
2.95839e-13
1.48007e-13
-1.15295e-11
-7.00789e-13
3.83461e-12
1.10646e-13
-1.10631e-12
3.31646e-13
4.38741e-12
-1.47794e-13
1.15444e-11
-1.48121e-13
-2.95963e-13
7.97901e-12
-2.95412e-13
-1.28518e-11
7.38577e-13
-2.95391e-13
-1.34487e-11
0
1.4812e-13
1.92655e-12
1.09607e-11
-1.19885e-11
-4.43738e-13
-1.24221e-11
1.58229e-11
1.22759e-11
2.95982e-13
0
4.44599e-13
-1.48056e-13
2.96026e-13
1.03569e-11
-4.43746e-13
2.95805e-13
-2.3664e-11
8.8746e-13
2.76663e-11
-1.48008e-13
2.96103e-13
1.16925e-11
-1.56824e-11
-5.91523e-13
-1.47845e-13
1.47847e-13
4.4353e-13
1.47835e-12
2.95733e-13
0
4.44011e-13
2.54466e-11
-1.47872e-13
1.34504e-11
-7.39012e-13
-1.4784e-13
-5.91341e-13
0
-3.00007e-11
-1.56735e-11
-2.95884e-12
2.95809e-13
-1.90712e-11
1.61101e-11
1.47854e-13
5.76964e-12
1.47929e-13
-4.43464e-13
-1.37419e-11
2.9563e-13
-2.95784e-13
0
-5.91364e-13
-1.89232e-11
-1.47938e-13
5.92257e-13
1.40652e-11
4.43688e-13
-1.49262e-11
-1.64064e-11
-1.13861e-11
-1.15353e-11
1.46359e-11
-1.13831e-11
-1.47928e-13
-5.92215e-13
1.4805e-13
0
1.18222e-12
1.478e-13
5.91472e-13
-2.66224e-12
-2.9566e-13
-1.4926e-11
-1.19733e-11
7.39467e-13
4.43668e-13
-4.43343e-13
1.27052e-11
-1.62578e-11
-4.43652e-13
-7.39719e-13
-4.43584e-13
-1.65517e-11
-2.54147e-11
-2.9556e-13
1.24128e-11
-1.4773e-13
-4.43256e-13
-8.8704e-13
1.0799e-11
1.28763e-11
0
4.43571e-13
-2.95618e-13
4.43392e-13
0
-1.37445e-11
-1.47836e-11
0
-1.4799e-13
1.27319e-11
1.59841e-11
0
7.39413e-13
0
1.47858e-13
-2.95749e-13
1.47923e-13
-2.95975e-13
-2.96081e-13
7.39884e-13
-1.302e-11
0
1.44944e-11
-9.90888e-12
1.47892e-13
-7.39494e-13
2.95836e-13
-1.28714e-11
-4.43912e-13
-1.89378e-11
-1.81946e-11
5.91576e-13
-2.80974e-12
-1.47879e-13
0
1.47872e-13
-2.95766e-13
-4.43747e-13
-1.09479e-11
-1.03544e-12
1.2423e-11
-1.47869e-13
1.47872e-13
1.62675e-11
1.03516e-12
1.4638e-11
-1.33069e-12
-2.95761e-13
2.51446e-12
0
-1.12387e-11
-1.31604e-11
4.43686e-13
1.0355e-12
5.91693e-13
1.47877e-13
-1.41932e-11
1.09414e-11
2.95761e-13
1.47888e-13
0
1.47882e-13
1.47927e-13
-7.39868e-13
1.12456e-11
1.47904e-13
4.43554e-13
0
6.65399e-12
1.18312e-12
-3.99259e-12
1.25697e-11
-5.02932e-12
0
1.19847e-11
2.66212e-12
1.36017e-11
-1.47841e-13
4.43593e-13
-1.1536e-11
-8.87233e-13
-1.58208e-11
-1.33088e-12
-1.47902e-11
-2.95788e-13
1.33066e-12
-1.21218e-11
1.25665e-11
2.95743e-13
2.95827e-13
-1.27179e-11
-1.22719e-11
-3.25254e-12
1.47847e-13
-1.47842e-13
7.39119e-13
-8.8696e-13
1.47859e-13
0
0
-2.36658e-12
-1.47873e-13
8.87101e-13
1.38971e-11
1.47835e-13
1.37488e-11
0
1.71556e-11
1.39051e-11
-1.77563e-12
-1.12435e-11
1.18322e-11
-1.03512e-12
-1.4786e-12
-1.59685e-11
-1.18293e-11
-1.47891e-13
2.95851e-13
-2.95913e-13
1.33137e-12
-1.31645e-11
-9.90941e-12
0
-2.95768e-13
1.22742e-11
-7.39421e-13
-1.62682e-11
-1.47911e-13
2.95844e-13
0
-2.9581e-13
0
-2.9577e-12
-1.47884e-13
1.47881e-13
-1.47878e-13
-5.91513e-13
-1.47892e-13
-1.47904e-13
-1.33108e-11
1.13875e-11
-4.43651e-13
7.39447e-13
1.62688e-11
8.87363e-13
1.41964e-11
1.33083e-11
4.43624e-13
1.5528e-11
1.47886e-13
-1.47883e-13
-2.86905e-11
-1.47909e-13
-1.77512e-12
7.39604e-13
4.43679e-13
-1.38996e-11
1.0646e-11
-1.47867e-13
-2.95764e-13
2.95763e-13
0
0
-1.18362e-12
-1.40548e-11
0
-1.47871e-13