/*--------------------------------*- C++ -*----------------------------------*\
  =========                 |
  \\      /  F ield         | OpenFOAM: The Open Source CFD Toolbox
   \\    /   O peration     | Website:  https://openfoam.org
    \\  /    A nd           | Version:  10
     \\/     M anipulation  |
\*---------------------------------------------------------------------------*/
FoamFile
{
    format      ascii;
    class       volScalarField;
    location    "0.5";
    object      gradTz;
}
// * * * * * * * * * * * * * * * * * * * * * * * * * * * * * * * * * * * * * //

dimensions      [0 -1 0 1 0 0 0];

internalField   nonuniform List<scalar> 
47104
(
5.96396e-13
7.45367e-13
4.46795e-13
-3.71779e-12
1.48558e-13
0
-1.4871e-13
-1.48928e-13
-4.47202e-13
-1.49091e-13
-2.9813e-13
-1.48935e-13
-2.18417e-11
-1.09535e-11
1.03349e-12
-1.47641e-13
1.33217e-12
1.0995e-11
-1.44462e-11
1.23718e-11
-1.11688e-11
2.9715e-13
4.13605e-12
-8.77998e-12
-1.45444e-13
-6.83584e-12
4.38996e-12
1.47714e-13
-2.97142e-13
-1.04238e-12
-1.23419e-11
-8.88062e-13
0
-4.7508e-12
-9.26213e-12
9.97458e-12
-2.87925e-13
1.02429e-12
-1.27285e-11
-1.3531e-11
2.97099e-13
0
5.23583e-12
1.28244e-12
1.40674e-13
-3.37617e-12
-2.99233e-12
0
2.95259e-13
-1.426e-11
-1.17359e-11
0
-2.03618e-12
1.42493e-13
3.93884e-12
1.40673e-13
1.99488e-12
-1.45438e-13
-2.79024e-11
-1.18836e-11
-1.14509e-11
5.47676e-12
-4.68261e-12
-1.29565e-11
1.22541e-11
5.6996e-13
0
5.41411e-12
-1.76134e-11
1.24908e-11
0
-5.94332e-13
5.7608e-12
4.09704e-12
2.67597e-11
-2.90868e-13
1.46325e-13
-4.43135e-13
1.48576e-13
-7.44609e-13
0
1.22123e-11
1.14397e-11
-7.4e-13
-2.95246e-13
-5.90501e-13
-8.88035e-13
-1.47087e-11
-1.4893e-13
-2.53413e-11
0
-2.98113e-13
-7.44526e-13
-4.4605e-13
1.48533e-13
-5.3473e-12
-1.21927e-11
7.44574e-13
1.1925e-11
-1.49094e-13
5.58629e-13
8.76985e-13
1.58291e-11
1.13412e-11
-1.1265e-13
4.84061e-13
0
0
-5.97376e-13
-3.17536e-13
-1.91505e-14
-2.39411e-12
1.20081e-11
2.84486e-12
-2.79777e-12
-7.32837e-13
-2.18007e-11
-4.33087e-12
8.82799e-12
1.2375e-11
-6.8681e-12
3.85193e-13
-9.23715e-12
-9.19344e-12
0
2.95676e-13
-2.48579e-11
5.94152e-13
-4.79846e-12
-7.46501e-13
-1.20857e-11
4.06281e-12
-3.52892e-11
-2.63504e-12
8.42813e-12
-8.42066e-12
5.82403e-13
2.26857e-11
1.29964e-11
-7.46005e-13
0
2.63397e-12
-1.18314e-12
0
-2.67356e-11
-2.87092e-13
-2.04731e-11
-2.93228e-13
-1.26999e-13
1.49159e-13
-5.96704e-13
2.27941e-13
5.91341e-13
5.80729e-13
-2.89962e-11
-8.60039e-13
-7.77604e-12
2.54954e-11
-7.51602e-12
-1.49164e-13
2.98465e-13
-2.30174e-11
2.95927e-12
8.73597e-13
-9.22723e-12
8.63998e-13
2.48652e-11
0
-6.02907e-12
-2.98429e-13
1.49339e-13
-4.48767e-12
-1.1883e-12
-5.89227e-13
-1.40746e-11
2.93044e-13
2.93557e-13
2.95743e-13
1.04544e-12
-7.46597e-13
2.98711e-13
-3.81554e-12
-3.01415e-12
-1.14481e-11
-3.81847e-12
8.96255e-12
-3.40868e-12
-7.88718e-12
-5.27441e-12
-1.3441e-11
-1.9143e-14
-1.39064e-11
1.59741e-11
1.4919e-13
-2.6184e-13
1.35911e-11
-9.13406e-13
7.46544e-13
1.21346e-11
3.82396e-14
1.25708e-11
1.33533e-13
2.54354e-12
4.05818e-12
2.72565e-14
-1.74249e-11
-5.47561e-13
4.27984e-12
4.28289e-13
1.94487e-14
-2.25782e-13
1.58145e-11
1.97205e-11
6.87844e-12
-2.00832e-11
1.49957e-12
-2.69434e-11
-1.6128e-11
1.93968e-11
-1.45135e-11
1.03589e-11
3.22659e-11
-3.02714e-13
-8.17355e-12
-3.653e-12
-8.23313e-12
1.88187e-11
-1.05894e-11
-2.64303e-11
9.50054e-14
1.47378e-13
2.99028e-13
3.17852e-11
2.49488e-06
2.09102e-06
2.12793e-06
1.94456e-06
8.71516e-08
8.73521e-12
2.16913e-13
-4.10689e-13
0
-1.1872e-11
2.09055e-06
-2.24001e-06
-2.30063e-06
-1.91778e-06
9.85981e-08
2.11794e-11
1.40261e-11
-1.13437e-12
-5.99818e-13
1.82957e-12
2.12784e-06
-2.30062e-06
-2.36604e-06
-1.9608e-06
9.92656e-08
3.18046e-11
1.16693e-11
1.19097e-11
-1.22745e-11
1.88187e-11
1.94471e-06
-1.91785e-06
-1.96084e-06
-1.67213e-06
9.96676e-08
1.81166e-11
-1.23126e-11
1.16434e-11
3.10627e-11
-2.17835e-11
8.72003e-08
9.86516e-08
9.92912e-08
9.96714e-08
-5.84942e-09
5.71212e-12
-3.13855e-13
1.25456e-13
-1.64135e-11
-9.31024e-12
2.01802e-11
9.07651e-13
1.51444e-12
8.75592e-12
9.01873e-13
2.60233e-11
1.18095e-11
1.68665e-13
-6.06296e-13
1.35885e-11
4.67245e-13
1.16142e-11
1.8144e-11
1.20272e-11
-8.58745e-14
1.43501e-11
4.0866e-13
5.95397e-13
-3.43013e-13
-1.54476e-11
-1.18514e-11
1.71682e-15
-5.75713e-13
2.19497e-13
-1.25402e-11
3.45192e-13
0
-1.42241e-11
-2.94108e-11
1.27787e-13
-1.08433e-10
-1.11271e-10
-1.33589e-10
-1.54454e-10
-3.50313e-11
-2.55245e-11
-4.11701e-12
-9.10772e-12
-6.16187e-12
2.48214e-09
-4.95328e-06
-4.14717e-06
-4.09842e-06
-4.19464e-06
-4.61939e-06
3.29006e-10
-1.79297e-11
1.1632e-13
-1.01945e-10
-4.95331e-06
-225.116
-293.583
-294.218
-292.69
-0.30846
1.81662e-08
-1.80492e-13
9.15595e-14
-1.21329e-10
-4.14663e-06
-293.583
-406.393
-407.891
-404.097
-0.828411
-1.49109e-08
8.70342e-13
2.25488e-13
-1.5225e-10
-4.09871e-06
-294.218
-407.89
-409.471
-405.517
-0.832116
-1.15707e-08
1.94446e-11
-9.05625e-14
-1.10753e-10
-4.19707e-06
-292.69
-404.097
-405.517
-401.895
-0.828447
-2.31233e-08
8.62439e-14
8.29327e-14
-5.88774e-11
-4.60985e-06
-0.308495
-0.828427
-0.832123
-0.828453
-0.0558766
1.55344e-08
3.78515e-13
-4.91412e-14
2.96842e-13
2.75368e-10
1.80577e-08
-1.49932e-08
-1.17954e-08
-2.4667e-08
1.57443e-08
-2.55889e-11
-1.17648e-13
-2.97683e-13
1.37432e-11
-1.57689e-11
2.12561e-13
-1.1613e-11
-4.74369e-13
1.91645e-11
-2.49756e-13
1.56098e-11
0
-1.26365e-11
2.77937e-12
-1.90164e-12
-4.16755e-14
2.64724e-13
1.72913e-11
2.70813e-13
-4.10956e-12
-7.42217e-13
-1.93698e-14
-1.11455e-11
-1.48218e-12
7.09958e-13
5.6365e-10
2.25264e-09
2.19503e-09
2.26215e-09
-2.63449e-11
2.54746e-11
1.49702e-11
2.40621e-13
-2.67729e-11
1.79687e-09
0.00708695
0.0139109
0.0140027
0.013713
-0.00011639
1.90831e-09
1.33315e-11
-2.47766e-13
5.67401e-10
0.007075
4.53705e-06
1.83678e-12
-1.64197e-13
2.22967e-09
0.0139087
7.74096e-06
-9.10573e-14
1.32802e-11
2.2026e-09
0.0139994
7.8516e-06
1.45808e-12
-2.02795e-14
2.10168e-09
0.0135629
7.27094e-06
1.28447e-11
1.25637e-12
-1.90873e-11
-0.00011498
-2.25571e-07
-4.07479e-12
1.1725e-11
2.96305e-13
1.85497e-09
4.53109e-06
7.73924e-06
7.8377e-06
6.91514e-06
-1.92627e-07
8.93958e-13
7.66994e-13
1.29189e-13
4.18246e-13
-1.36504e-11
1.3709e-11
-1.18312e-11
-5.47475e-14
3.36255e-13
7.82847e-14
-9.07141e-13
0
1.22841e-12
-3.55118e-13
3.54676e-13
2.96305e-13
-1.06414e-13
1.07581e-13
-8.6532e-14
1.27817e-11
-2.77027e-13
-1.29363e-13
1.41241e-11
0
2.47143e-13
9.88705e-11
5.10212e-10
4.93358e-10
4.90341e-10
2.05326e-11
-2.97749e-13
1.706e-11
-2.08678e-12
8.17061e-13
-1.81651e-09
0.000275527
0.00043761
0.000426157
0.000431857
-3.0956e-06
1.55281e-10
1.81331e-11
-1.25139e-13
7.81621e-11
0.000253933
2.64428e-07
-2.3963e-13
2.60755e-13
5.13105e-10
0.000434505
5.2979e-07
-1.37641e-11
-1.75054e-11
5.2809e-10
0.000427212
5.52896e-07
-1.93799e-11
5.09457e-13
5.20793e-10
0.000691654
4.69685e-07
-1.14793e-13
-4.89087e-13
-2.20703e-12
0.000136012
-1.63873e-08
1.66691e-11
3.36489e-14
2.97643e-13
2.42631e-10
2.71609e-07
5.30565e-07
5.6109e-07
9.97377e-07
-2.52177e-08
1.502e-12
2.62495e-13
-9.03989e-14
-1.58991e-11
-6.38251e-13
-1.26484e-11
2.52243e-11
1.35133e-11
-1.83099e-11
-4.38911e-12
-1.51887e-11
-1.09867e-13
-6.33856e-13
-2.723e-11
-3.45297e-13
-1.08587e-13
-3.97743e-13
1.41586e-11
-1.22161e-11
-2.75345e-13
6.80307e-13
7.43833e-13
1.13849e-11
-2.08453e-12
-6.26561e-13
1.19897e-11
1.24639e-10
1.60164e-10
1.49297e-10
-5.65805e-11
2.3866e-11
2.07118e-14
2.94956e-13
-2.04361e-13
-2.31123e-09
0.000118013
0.000149606
0.000124859
0.000160545
-6.7991e-07
2.55337e-11
-1.35819e-11
-4.00483e-13
-2.5151e-11
-3.64755e-05
3.89966e-08
2.35463e-11
-5.28002e-13
9.362e-11
0.000117354
7.82339e-08
1.08285e-13
1.52314e-13
1.24436e-10
0.000126181
8.30219e-08
-1.30283e-12
-1.53345e-11
1.566e-10
0.000226198
6.80765e-08
-1.25003e-11
-1.22231e-11
-3.16135e-11
-3.26776e-06
-2.59219e-09
3.50294e-12
-1.15841e-11
-5.96606e-13
9.82924e-12
3.93336e-08
7.84464e-08
8.74649e-08
1.44421e-07
-9.67729e-09
-2.10792e-12
-3.85953e-13
4.07502e-13
2.85446e-13
-1.24932e-11
-1.37722e-11
1.44675e-11
2.60222e-13
4.77641e-13
1.1736e-13
-1.32573e-11
-3.87757e-14
-5.95434e-13
4.72374e-12
-5.23608e-13
2.95165e-14
-6.3447e-12
-9.36198e-13
1.3592e-13
-7.7287e-13
2.26519e-13
0
9.74719e-14
3.87395e-12
-4.30619e-13
-2.63368e-12
3.5719e-11
2.51983e-11
5.61314e-11
2.71082e-11
-4.74835e-11
-1.32582e-11
1.825e-11
-2.34517e-11
-2.19058e-09
9.06496e-05
0.000117889
9.08005e-05
0.000129749
2.71623e-07
3.57871e-11
4.79077e-13
-6.17274e-14
-1.1627e-10
0.00127004
-3.63573e-09
4.04416e-13
6.26648e-14
2.92783e-12
-1.69122e-05
-9.7727e-09
1.28294e-11
3.01579e-11
4.04318e-11
9.02532e-05
-1.04571e-08
1.36055e-11
-3.59184e-13
1.52018e-11
0.000133082
-9.11032e-09
-6.79117e-13
-2.27874e-13
3.80641e-11
1.60633e-07
6.04729e-10
-1.62644e-11
1.44902e-13
-6.27124e-12
2.28546e-11
-4.79433e-09
-1.03707e-08
-2.28885e-08
-4.07075e-07
3.3138e-08
-6.0263e-13
-3.73173e-13
-1.48836e-13
1.53226e-11
6.61053e-13
1.3553e-11
-2.02333e-11
-1.34356e-11
-2.89645e-13
4.08935e-12
-5.49963e-13
-5.9548e-13
1.48904e-13
2.41768e-11
1.76857e-13
-1.45908e-11
3.63638e-14
-1.40288e-11
1.20968e-11
-3.9034e-14
1.67226e-11
-5.9559e-13
-1.65316e-11
-3.36827e-11
6.27185e-13
-2.04853e-11
-2.15778e-10
-2.53148e-10
-2.47915e-10
3.3104e-12
2.38945e-11
-4.83866e-13
-1.54251e-11
2.49572e-11
-1.23922e-10
5.50608e-05
-3.59003e-05
-7.19634e-05
-1.43131e-05
1.40881e-06
-8.38623e-11
1.1972e-11
-1.25744e-11
6.03447e-11
-0.000546893
-2.37296e-07
3.11564e-12
3.31036e-13
-1.95561e-10
8.14456e-05
-5.27252e-07
6.95245e-14
-1.26408e-11
-2.04202e-10
-6.90995e-05
-5.47859e-07
-9.08923e-13
1.58867e-11
-2.06104e-10
-1.36341e-05
-4.55941e-07
3.4429e-13
1.23629e-11
1.47734e-11
1.2025e-06
1.01716e-08
3.74964e-12
-2.14398e-13
3.52438e-11
-9.40214e-11
-2.37725e-07
-5.27009e-07
-5.38966e-07
8.45072e-08
-1.5309e-08
3.01295e-13
7.16343e-15
-2.97783e-13
4.78952e-15
1.52346e-11
1.6283e-11
-1.46659e-11
1.58282e-14
-1.96162e-11
-1.66038e-11
-9.75179e-14
-1.48925e-13
-4.46784e-13
-4.29247e-12
2.9375e-13
1.23244e-11
5.88609e-12
1.18422e-11
1.37073e-13
-4.99237e-13
2.90615e-13
-2.97877e-13
1.35588e-13
3.3087e-11
-1.59324e-12
1.13712e-10
5.16565e-11
1.43928e-10
-8.58576e-11
4.93442e-12
2.98661e-13
-3.575e-12
1.31624e-13
3.74207e-14
-3.32003e-09
-0.0045321
-0.0105814
-0.0107009
-0.0103832
5.90189e-05
-3.69259e-10
-2.39531e-13
8.99488e-14
5.27577e-12
-0.00425123
-3.21784e-06
-4.35964e-13
5.79848e-14
3.84432e-11
-0.0105439
-5.27746e-06
1.44007e-11
-1.23845e-11
1.10728e-10
-0.0107074
-5.36836e-06
-1.27506e-11
-1.19279e-11
-1.08417e-10
-0.0103859
-4.9294e-06
-1.41356e-11
-1.54566e-13
-1.7253e-11
5.89392e-05
1.07221e-07
-1.96308e-13
-4.91218e-13
-2.83717e-11
-3.67547e-10
-3.21939e-06
-5.27724e-06
-5.36224e-06
-4.86122e-06
1.00077e-07
-3.01167e-13
1.87283e-13
-2.9786e-13
4.94622e-13
-1.58414e-12
1.41524e-11
-4.50054e-12
1.63847e-14
5.19346e-13
4.8633e-13
-3.21996e-14
8.9377e-13
1.74247e-11
1.13243e-11
6.38043e-13
1.45181e-11
1.30494e-12
1.91959e-13
-6.04508e-14
-5.54288e-13
-1.64911e-11
1.48955e-13
3.06182e-11
-5.96154e-13
5.76372e-13
-3.08276e-11
5.88414e-13
-8.53317e-13
-8.81121e-13
7.14198e-13
1.79128e-12
8.50391e-13
1.53522e-11
-3.02621e-11
4.18567e-10
1.73879e-05
1.46012e-05
1.44375e-05
1.47874e-05
1.59851e-05
2.6281e-10
-2.45096e-11
1.31304e-11
0
1.7352e-05
-1.52544e-08
-1.52274e-11
-2.3049e-13
-1.17688e-12
1.46358e-05
-1.84029e-08
3.27072e-14
1.27125e-11
-3.00448e-11
1.44761e-05
-1.82279e-08
4.45017e-13
-5.30063e-13
1.17487e-12
1.4826e-05
-1.8821e-08
-1.20468e-11
-2.53876e-11
2.99363e-13
1.60464e-05
4.62415e-09
-2.30423e-11
1.55866e-13
-3.25399e-11
2.46643e-10
-1.52553e-08
-1.83761e-08
-1.81957e-08
-1.87973e-08
4.69277e-09
6.02208e-13
-3.01349e-13
-7.44725e-13
-1.46012e-11
-2.18864e-11
-2.74663e-11
-9.93542e-15
-1.0387e-13
1.88602e-11
-2.81222e-13
-1.21612e-11
-1.48971e-13
0
-1.43482e-11
1.21866e-11
-1.21735e-11
-1.33328e-11
-1.10062e-11
-1.14627e-11
1.68007e-12
-7.51896e-13
-1.4895e-13
1.15096e-13
-2.98101e-13
5.23339e-11
-2.92924e-13
-5.85873e-13
-7.03665e-12
-2.9256e-13
4.26045e-13
-3.34471e-11
-9.50986e-12
8.41272e-14
3.0163e-11
-1.22628e-12
5.62308e-11
5.8802e-13
-2.35599e-12
5.87198e-13
-2.53968e-11
-3.97292e-13
-2.14679e-11
9.37643e-14
-2.89932e-11
-5.88072e-11
1.76018e-12
-2.70376e-13
1.90985e-11
0
7.05396e-11
-2.74847e-11
-1.44174e-11
-2.26139e-13
-2.93277e-13
2.35686e-11
7.09322e-11
-8.3498e-13
2.94196e-11
2.36986e-11
1.12689e-10
1.31539e-11
-2.16314e-12
-1.39997e-12
1.13506e-11
7.55304e-11
-1.47941e-12
4.84853e-13
-9.21807e-12
3.28627e-11
-8.81756e-12
1.99777e-12
2.38658e-11
-2.31947e-11
7.24009e-14
1.86286e-12
0
-1.43854e-11
1.48938e-13
2.0543e-14
1.34109e-12
-1.41202e-11
1.18047e-11
6.23021e-14
-5.34719e-13
1.45129e-11
-7.21433e-13
-1.10136e-13
-1.72727e-11
-1.21602e-11
-6.10901e-13
2.5522e-13
-1.69901e-12
-3.50909e-13
1.14051e-11
-1.21855e-11
1.80921e-13
-1.93487e-14
-1.47396e-11
5.96242e-13
-5.03434e-11
2.92849e-12
-5.85626e-13
-1.52396e-11
2.92439e-13
-2.33638e-13
5.73469e-11
-1.04485e-12
4.64956e-13
-5.18843e-13
-1.83876e-12
4.68473e-12
5.23777e-11
5.90812e-13
5.24015e-11
1.94071e-12
-4.34711e-11
1.26502e-11
-1.15129e-11
2.95633e-11
2.59834e-13
-1.48029e-13
-1.83551e-11
9.34304e-13
-2.92816e-13
1.30391e-10
-3.6138e-12
-1.34485e-11
-7.04418e-14
-2.93059e-13
2.8356e-11
-3.33127e-11
-1.15511e-12
7.3339e-13
-2.22245e-11
-2.59038e-11
1.34883e-12
1.18357e-11
-3.32639e-12
-1.08681e-11
-1.84699e-13
3.26988e-11
1.91064e-11
8.59797e-14
2.62829e-11
8.95235e-13
3.33148e-13
-2.39604e-11
2.42275e-11
-5.43032e-14
-2.25456e-12
1.82463e-13
-1.687e-11
8.93536e-13
1.47504e-11
3.785e-11
2.88648e-11
-1.75561e-11
-9.88736e-15
-3.02225e-13
1.67456e-11
1.2153e-11
-1.23032e-12
-7.44475e-13
1.49824e-11
-1.21397e-11
3.28709e-14
1.45977e-11
2.87039e-13
1.1384e-11
-2.2816e-13
-1.11853e-11
-7.89333e-12
2.67449e-13
0
-1.1401e-12
2.57643e-11
3.22149e-11
2.28633e-11
2.92478e-13
-2.08663e-13
-2.53889e-11
1.2981e-11
1.43895e-13
-3.30518e-11
1.22508e-12
5.42109e-12
-1.45404e-12
-4.55055e-11
-5.88924e-13
-4.97037e-11
4.34339e-11
9.37412e-12
1.60211e-11
5.85467e-13
1.1386e-12
3.93971e-13
-1.30335e-13
-7.10656e-12
0
6.45656e-13
-6.87302e-12
-1.0823e-13
-4.86324e-14
-1.17243e-12
0
2.68732e-11
3.60571e-13
-1.76638e-11
-2.10572e-11
4.59329e-11
2.69828e-12
1.70524e-11
1.43827e-12
-1.38133e-12
5.56882e-11
-4.97888e-12
-7.30174e-13
9.82902e-12
-2.50868e-11
-4.32554e-13
-1.28723e-12
-2.75427e-11
-3.81577e-11
-7.4272e-12
4.7437e-14
-1.20558e-12
1.41271e-11
1.4891e-13
-2.88815e-13
-4.77671e-13
-1.48512e-12
-3.6701e-13
-7.11935e-14
6.61542e-13
-1.46568e-11
6.57213e-13
-1.63824e-11
-2.97787e-13
6.79501e-13
-2.30338e-14
-2.04199e-13
9.8125e-14
-1.94966e-13
-1.13199e-11
1.28578e-11
7.41611e-15
-1.29578e-13
-3.54016e-13
-5.96202e-13
-3.42112e-13
-2.92899e-11
-3.45528e-11
-5.86164e-13
1.90092e-11
-7.98945e-12
5.97323e-13
7.30023e-13
-5.4033e-13
3.36806e-11
1.22797e-12
-1.02668e-13
-5.89841e-13
5.90948e-13
7.06675e-12
-5.85243e-11
2.7444e-13
-5.89301e-13
-1.69333e-12
-2.83948e-11
3.53242e-11
2.60704e-11
4.35108e-12
-6.78892e-13
1.46411e-12
-5.80575e-11
3.78605e-11
1.37412e-11
-6.94801e-15
-3.10646e-11
1.18188e-12
-2.62157e-11
-3.86991e-12
-1.41064e-13
1.95919e-11
0
-3.26733e-11
1.14105e-13
1.40726e-12
5.07414e-13
-4.0412e-12
-9.40797e-12
1.80845e-13
-5.40811e-14
-2.68862e-12
-3.75616e-13
1.05256e-12
-5.69187e-12
3.87922e-11
2.07661e-11
5.14705e-14
-2.98384e-11
1.68186e-11
-4.4673e-13
-3.6702e-14
-1.8469e-11
-1.66753e-11
5.25562e-12
-1.34536e-11
1.27068e-12
-5.20942e-13
7.0859e-14
-1.60849e-11
7.4452e-13
-7.30244e-14
-1.67561e-13
-1.4242e-13
-1.36345e-13
-2.3562e-13
-2.36247e-13
-3.56218e-13
2.62724e-11
8.04306e-12
-1.4383e-11
1.19218e-12
-3.05706e-13
2.63561e-12
-2.92808e-13
0
-1.93008e-11
8.3558e-12
2.98561e-13
4.65636e-13
-3.91139e-12
-1.0202e-12
1.22995e-12
5.58786e-11
6.48222e-11
-5.90359e-13
5.88382e-13
-1.22315e-12
2.84512e-12
1.20154e-11
-1.56459e-11
6.35374e-11
1.38196e-12
-2.56238e-11
-8.32408e-14
-1.26649e-11
1.17118e-12
5.89295e-13
3.36903e-13
-5.6453e-13
-5.15094e-13
5.65572e-11
5.2541e-11
-8.0447e-14
7.29151e-13
-2.6814e-13
-3.53807e-11
5.29442e-12
2.83123e-11
-1.09238e-13
4.77759e-14
3.00245e-11
-7.23718e-11
1.51001e-11
1.1053e-13
6.50727e-13
1.19453e-12
1.52886e-11
8.51614e-13
3.44514e-11
-2.13198e-12
1.60992e-11
-2.21357e-11
6.41643e-11
1.941e-13
2.7844e-13
1.54486e-11
1.39148e-13
-1.11533e-11
2.68678e-14
3.14497e-13
-3.20445e-13
1.11121e-11
-1.90385e-14
1.65336e-11
4.46798e-13
-2.14503e-13
-4.54987e-13
2.01375e-13
-1.2205e-13
1.4481e-13
1.21013e-13
-6.58452e-12
3.10551e-14
-5.9783e-12
1.3165e-11
2.44373e-11
-1.4958e-12
-1.46644e-12
5.87719e-13
0
-2.93392e-13
-1.47122e-12
8.95401e-13
-3.33873e-13
3.23675e-14
1.21437e-13
-6.10411e-13
4.23545e-11
-6.32195e-11
-5.91663e-13
-5.42939e-11
-6.65485e-11
-4.02879e-12
5.8806e-13
3.14773e-11
-3.57774e-11
-6.78888e-11
3.37899e-11
1.4528e-11
-5.06234e-13
-1.46921e-12
-1.18167e-12
-2.43792e-11
-3.33269e-14
-6.88371e-13
-2.38224e-11
1.18331e-12
2.75704e-11
2.42786e-11
-5.72305e-13
3.49117e-11
-1.1802e-12
9.52051e-13
-6.37563e-13
1.36227e-11
-2.97329e-11
4.64815e-11
2.27619e-11
-3.02316e-13
1.33978e-13
-5.96863e-13
-1.31677e-11
3.38125e-11
3.97512e-11
-6.69073e-14
-2.96239e-11
2.19978e-11
-3.21962e-11
2.83555e-13
-5.76403e-13
-1.42153e-11
-1.1379e-11
-4.59519e-13
1.18668e-11
1.33202e-11
-6.81892e-13
7.54953e-13
6.08632e-13
1.71331e-11
1.48953e-13
6.05093e-13
7.89677e-13
1.0069e-13
1.37312e-13
4.00842e-13
-1.13406e-11
1.16622e-11
-1.52952e-11
3.17312e-13
3.56628e-11
-2.56427e-11
8.0407e-13
-5.8696e-13
2.93901e-13
-2.55918e-11
2.93462e-13
3.94364e-13
-1.19487e-12
-3.95572e-13
3.79641e-12
-3.81856e-13
-6.13792e-13
-4.53532e-13
4.8025e-11
-1.26313e-12
-4.79001e-11
-1.58696e-11
1.21413e-11
9.12752e-13
1.623e-13
5.86881e-13
1.51056e-12
-6.7987e-11
1.72359e-13
-5.85036e-14
-8.81652e-13
4.44082e-11
4.92545e-11
3.36517e-13
-1.32707e-11
-3.23563e-12
6.96816e-13
-2.75069e-11
6.34412e-12
-1.97899e-13
5.86907e-13
-2.9805e-12
-1.78968e-13
-2.90421e-13
-1.37054e-11
6.29138e-12
-1.19809e-10
-3.13907e-14
-1.97551e-11
-7.32059e-13
-2.18069e-11
-8.67299e-12
-6.04026e-11
-8.52814e-12
3.30525e-11
8.44372e-13
2.79986e-13
3.16485e-11
-1.66294e-11
1.48979e-13
-1.54885e-11
-2.49109e-13
-5.55677e-12
-5.37143e-13
1.43767e-14
1.06282e-13
-1.13159e-11
-1.92417e-13
3.36853e-13
-5.95802e-13
2.62293e-13
1.25542e-11
-1.17002e-11
-3.45824e-13
-1.14821e-11
-1.20924e-13
7.02311e-12
5.98766e-14
5.79058e-12
-1.31077e-11
-2.98181e-13
-6.29356e-13
-3.16337e-11
0
2.49122e-11
2.92471e-13
-3.74011e-11
3.07632e-11
1.10748e-12
2.02423e-13
1.09162e-13
6.13609e-13
3.89859e-12
0
-3.53873e-12
-6.23091e-11
1.16535e-12
3.06595e-11
1.2331e-11
-1.87107e-11
2.46008e-11
-9.20364e-13
3.07726e-12
-2.36642e-13
9.1504e-13
0
-1.17751e-12
-2.50347e-11
1.9955e-13
4.10387e-13
3.22381e-12
1.17957e-12
5.15965e-13
-1.91792e-11
-1.37785e-11
-8.77371e-13
-4.64374e-11
6.28765e-13
-1.80088e-11
8.25375e-13
-5.51755e-12
-9.88159e-14
-2.59589e-11
-1.14601e-11
1.0962e-13
-4.18145e-12
4.92612e-13
2.59397e-11
-3.15029e-11
-6.62377e-11
-9.24456e-12
-1.42856e-12
-7.08253e-11
-2.51212e-13
2.97938e-13
1.37386e-11
1.15137e-11
2.70283e-13
1.7183e-11
-6.60935e-13
6.8545e-12
1.6943e-11
-2.59612e-13
-3.88352e-14
-1.2215e-11
1.74971e-13
-6.14385e-13
-3.98183e-13
-5.26176e-14
1.29841e-11
1.15483e-11
-1.19903e-11
-1.85453e-13
-1.29651e-13
-3.54161e-11
1.49084e-12
-3.50346e-13
3.16319e-11
0
-2.54984e-11
-2.36887e-11
6.88139e-11
-6.27223e-12
1.89522e-11
-3.44296e-13
1.51913e-12
-2.45416e-12
-1.5112e-13
-4.2586e-13
-3.5453e-12
1.17752e-12
-6.55874e-11
-2.97862e-11
-6.17186e-13
1.34639e-11
-5.71068e-11
1.88768e-12
3.04705e-11
3.43483e-13
7.14363e-13
3.42602e-11
-3.58676e-12
9.69471e-13
7.59481e-14
1.37455e-11
-8.79206e-13
-4.43159e-11
-5.10668e-13
4.48606e-12
2.31727e-13
3.3629e-11
0
9.41628e-14
3.11056e-13
1.39088e-11
-1.52287e-13
-6.36369e-11
5.61988e-11
3.55834e-11
-5.07014e-14
2.59876e-11
-3.75946e-12
9.65893e-13
3.40776e-11
3.28048e-11
-2.53145e-11
1.73831e-12
3.91867e-11
3.91484e-11
0
-1.13403e-13
-6.20585e-12
1.75845e-11
1.13618e-11
3.77539e-14
-2.40898e-13
2.7185e-13
-1.30364e-11
0
4.47065e-13
6.90705e-12
-1.26919e-11
1.10742e-11
2.35297e-13
1.10284e-11
1.2865e-13
1.00783e-15
1.69239e-13
-1.38594e-11
2.48057e-13
-2.9821e-13
-6.1831e-13
2.92764e-13
-2.92877e-13
2.63802e-11
2.39824e-11
-3.26515e-11
-2.35962e-11
-9.87975e-13
1.22931e-11
-1.15472e-12
0
1.65992e-12
1.16315e-10
5.90946e-13
-5.88847e-13
-2.15357e-12
1.6549e-12
-1.26259e-11
1.95214e-13
3.27859e-11
-1.72087e-12
-4.84662e-13
-8.47417e-14
1.71339e-11
-3.13349e-11
-7.97366e-13
-1.4338e-12
1.54882e-11
-1.24315e-13
2.93096e-13
2.36375e-12
2.88617e-11
-7.98332e-13
-3.09359e-12
-3.36312e-11
6.53542e-11
1.28364e-12
4.39944e-12
-7.60066e-14
2.97924e-11
6.33993e-11
-3.02882e-11
1.4384e-11
9.82845e-13
0
2.92815e-11
-7.3468e-13
-3.38173e-11
-2.00847e-12
3.3243e-11
-1.81816e-12
6.02849e-13
2.55042e-11
1.49017e-13
4.48514e-13
-1.14769e-11
-7.88792e-13
-1.65602e-11
8.2392e-13
-6.56425e-12
-1.62297e-11
8.8349e-14
6.35138e-13
1.16325e-11
-6.45782e-13
-1.28301e-13
2.84032e-13
-1.76515e-13
-1.32273e-11
1.87796e-13
3.97859e-14
-1.46395e-13
-1.70204e-11
1.40958e-11
-2.3567e-11
2.92388e-11
-2.92751e-13
-2.51853e-11
-1.17229e-12
5.84882e-13
-6.18662e-13
-2.98835e-13
-3.35957e-11
1.87418e-14
2.36996e-13
-6.13689e-13
5.4392e-11
1.50026e-13
-5.90698e-13
1.76573e-12
-1.29496e-12
-1.42569e-12
-3.61772e-14
-2.45322e-11
0
-1.06109e-10
-3.22263e-13
-6.49107e-13
-1.77967e-12
2.13755e-11
6.48584e-11
-7.86188e-12
-3.56702e-13
1.15325e-13
0
5.96597e-11
-2.95966e-11
-1.12802e-11
-3.55859e-14
0
1.76569e-12
-5.9808e-13
7.173e-13
4.66666e-13
-2.99325e-11
-1.46764e-13
4.99511e-13
-1.59991e-11
-1.33114e-11
-2.98826e-13
-5.09271e-12
-8.70867e-14
2.32124e-11
-3.1776e-11
-3.15993e-11
-5.1798e-13
-3.31464e-12
-2.2918e-11
1.13136e-11
3.59539e-13
6.06532e-12
1.34241e-11
-1.06982e-11
-1.89808e-14
-3.12588e-13
2.27008e-13
2.69518e-11
1.10182e-13
0
-7.25824e-12
1.21443e-11
9.11623e-13
1.37105e-13
3.4306e-15
-1.64928e-11
-4.29372e-13
1.82769e-13
1.37511e-11
3.42882e-14
3.64251e-11
-2.93792e-11
2.90424e-11
2.58389e-11
-5.87659e-13
-5.86412e-13
9.75656e-13
-2.98995e-13
-1.97402e-13
-1.22087e-11
9.02687e-14
3.06436e-12
7.41625e-11
-5.87545e-13
6.41383e-11
6.45248e-11
4.63086e-11
-2.24103e-11
1.18918e-11
-1.21097e-11
-5.86795e-13
-4.66792e-11
-3.79581e-11
3.87008e-13
-1.75285e-11
-5.02049e-11
5.22866e-11
7.30927e-12
-1.51464e-11
-2.12567e-11
5.87665e-13
-5.8842e-13
-3.61207e-11
1.39965e-11
1.75729e-11
7.91676e-12
2.63965e-11
-4.04852e-13
1.41779e-11
-9.4626e-13
-3.59904e-13
1.32278e-13
-2.99458e-14
-3.31039e-12
-1.61036e-11
2.98972e-13
1.32569e-11
3.79336e-11
-2.38094e-11
3.39504e-11
3.23287e-11
3.57015e-11
2.86172e-11
-3.93613e-11
1.94593e-14
3.59299e-13
-1.44242e-12
-4.862e-13
-2.28669e-14
-1.3843e-13
2.02901e-13
-7.2073e-13
8.13372e-13
-7.46461e-13
-1.17889e-11
-2.1815e-11
-1.66291e-11
-8.24972e-14
-2.29729e-13
1.27542e-13
5.31419e-13
1.4472e-11
2.60118e-13
1.73084e-11
-1.5309e-14
-1.374e-11
-3.16664e-11
-2.82072e-11
2.35192e-11
8.93643e-13
5.94636e-13
-5.94261e-13
1.49546e-12
2.95253e-12
-9.22876e-15
-3.74142e-14
1.22409e-12
-5.80898e-11
-1.22847e-11
5.09655e-11
5.25662e-11
-1.35459e-10
2.03627e-11
1.18379e-11
1.13218e-11
5.93939e-13
-2.31541e-11
3.75732e-11
-5.77474e-13
1.64725e-12
2.47118e-11
5.45532e-11
3.00609e-13
1.52322e-11
5.4929e-13
-2.9794e-13
6.87652e-11
7.22059e-12
3.7018e-13
4.96567e-13
-7.43422e-12
5.51699e-13
-3.4779e-11
-1.59224e-14
1.91639e-12
-1.18867e-12
-7.51473e-11
6.98177e-13
1.84765e-12
1.27291e-11
5.98091e-13
-4.79554e-11
-3.86661e-11
-3.38063e-11
3.39994e-11
1.28925e-11
-1.18873e-11
-2.62272e-11
-1.67626e-13
-1.17858e-11
-1.45435e-13
4.35911e-15
-1.38481e-11
1.16491e-11
-4.59613e-13
1.20202e-11
-5.60818e-13
-1.40014e-11
0
2.97773e-13
7.13887e-14
-1.61993e-11
2.31423e-14
-4.44862e-12
-1.55988e-11
1.63189e-11
1.59043e-11
1.19959e-11
1.36765e-11
9.31856e-13
-2.58946e-11
7.23801e-11
-1.01291e-12
-2.373e-11
2.19602e-11
-1.18587e-12
-6.81739e-12
-2.82557e-11
-1.4483e-11
4.35373e-14
5.94406e-13
1.04144e-11
-1.17873e-12
-3.54552e-12
-5.91079e-13
1.65886e-13
-7.05596e-11
3.2337e-12
-1.1994e-11
1.23528e-11
-4.40505e-13
-3.32167e-13
8.08194e-13
4.39153e-13
-8.952e-12
-1.39688e-11
5.71361e-13
-4.18213e-13
-1.39161e-11
2.93902e-13
1.91531e-12
-5.91114e-13
-7.9756e-12
2.83013e-11
-9.27062e-12
2.06016e-12
0
-7.71021e-12
3.14452e-13
6.36133e-12
-1.42473e-11
-9.45894e-12
-1.01236e-12
-5.316e-13
8.11374e-12
-1.84165e-12
0
2.92725e-11
-1.41225e-11
6.65145e-13
-5.93058e-13
-4.42912e-11
3.30361e-11
-3.28479e-11
1.88543e-11
-1.63483e-11
5.76854e-13
3.43598e-11
-2.29389e-13
1.51153e-11
5.92908e-13
1.70541e-11
3.42397e-12
-7.85072e-11
-1.16408e-12
1.74496e-12
5.73503e-11
-2.32475e-13
1.01065e-12
1.57797e-11
1.48713e-12
4.2485e-11
-4.2366e-13
3.31399e-11
-3.35181e-11
-1.39237e-11
-2.60231e-11
0
1.47274e-11
-1.50527e-11
2.82859e-14
9.11466e-12
-1.23521e-13
1.35216e-11
7.21821e-14
3.79791e-13
-1.38327e-12
-1.65934e-11
2.0843e-12
1.32139e-11
2.22564e-11
1.67432e-11
-3.70046e-12
-9.6657e-14
1.47987e-13
-5.92067e-13
-1.44528e-11
9.09254e-13
1.05807e-12
0
4.99773e-12
-1.87571e-11
8.96816e-14
-5.90751e-13
1.36973e-12
-2.44982e-12
6.79785e-12
-6.28209e-12
1.18684e-11
6.37132e-12
3.08344e-13
-8.84047e-13
-2.71332e-11
0
-8.57169e-13
0
2.93963e-13
1.42716e-13
-1.18518e-11
-1.25814e-11
7.50041e-12
2.93731e-13
0
-3.00913e-11
3.16921e-11
2.44381e-11
-1.46492e-12
5.22661e-13
1.47995e-13
-1.4798e-13
-1.6976e-11
2.91996e-13
7.91347e-12
-3.61793e-12
1.11991e-13
-4.16629e-12
1.91183e-13
-9.99866e-12
-1.50923e-11
-4.43944e-13
2.8542e-12
2.70818e-11
5.56988e-12
4.37258e-12
-8.25207e-12
-1.92349e-12
1.37216e-12
1.04758e-11
1.47966e-13
-5.92074e-13
1.73019e-12
3.67547e-11
-9.36318e-12
3.09429e-11
0
-9.45024e-13
-8.49971e-13
3.73351e-13
-4.44021e-13
1.02027e-11
2.95586e-13
2.42941e-11
-5.86546e-13
2.52055e-13
-3.23488e-13
5.53299e-11
-3.45788e-11
-2.94933e-13
-1.55639e-12
-2.96747e-13
-8.56441e-12
-8.8635e-13
1.71355e-11
2.94883e-13
-1.48976e-11
2.68089e-11
-4.67262e-12
-5.99147e-12
4.45155e-13
3.15774e-13
-1.29392e-13
-3.48886e-13
0
-1.14953e-11
5.919e-13
-1.13959e-11
1.48151e-13
-4.45082e-13
2.96927e-13
-1.48202e-13
2.96244e-13
1.50971e-11
1.47935e-13
4.88148e-12
1.53833e-11
0
-2.81244e-11
-1.28866e-11
-1.42268e-11
-1.18496e-12
-1.50939e-11
1.62598e-11
1.18188e-11
-9.74968e-12
-1.44807e-11
2.36375e-11
5.46732e-12
2.05687e-11
1.4515e-11
-1.16925e-11
0
-5.12683e-12
-5.86396e-12
1.47659e-13
7.08791e-12
-4.42581e-13
-6.60213e-12
-1.16763e-11
0
-1.21297e-11
-2.95463e-13
-2.02816e-12
-1.104e-11
-1.15837e-11
-1.32861e-11
-4.65372e-12
-1.91427e-11
-1.47739e-13
1.42003e-11
5.91588e-13
-1.22624e-11
-8.59452e-12
0
1.58714e-11
2.1358e-11
5.32931e-12
4.43021e-12
-4.43309e-13
1.1832e-12
1.53813e-11
-1.47734e-13
-9.58919e-12
-1.55259e-11
-1.20156e-11
7.41631e-13
-3.29374e-12
-2.25197e-12
-1.37426e-11
2.95807e-13
2.9585e-13
-3.19047e-11
-1.38575e-11
1.90409e-11
5.96051e-12
-1.6175e-11
-8.38425e-12
9.51537e-12
-1.2557e-11
0
-1.42093e-11
4.17411e-12
4.01943e-12
-5.12437e-12
-3.3964e-12
-2.21514e-12
-5.75402e-12
5.56943e-12
-3.58327e-12
1.24336e-11
2.96229e-13
-1.55374e-11
-1.01212e-11
-1.15214e-11
1.59909e-11
1.58104e-11
0
1.64062e-11
1.82012e-11
-4.44366e-13
1.4967e-11
0
2.66411e-12
-1.47926e-13
-1.36082e-11
-1.33116e-11
-8.87535e-13
-1.35794e-11
3.49927e-11
-2.07477e-12
1.08078e-11
-5.9202e-13
1.47947e-13
4.28929e-12
-7.39478e-13
-1.47896e-13
1.4791e-13
-4.43855e-13
-5.92028e-13
-1.33246e-12
-1.53923e-11
-1.64209e-11
7.39324e-13
4.43494e-13
0
-1.43403e-11
1.47835e-13
1.47871e-13
1.21309e-11
0
-1.89364e-11
-1.34553e-11
-2.95575e-13
-1.12313e-11
-1.15303e-11
-2.74957e-11
1.47788e-13
2.74895e-11
1.47862e-13
0
1.13878e-11
-1.24166e-11
-1.47768e-13
3.69551e-12
0
-1.80473e-11
0
2.95578e-13
-1.47829e-13
1.03529e-12
-1.52312e-11
1.74417e-11
-5.9116e-13
-2.95797e-13
-1.58418e-11
2.96117e-13
-1.4793e-13
-1.30089e-11
2.77927e-11
4.43658e-12
-1.47875e-13
1.43374e-11
1.50741e-11
2.95791e-13
1.48054e-13
0
1.12427e-11
-4.43485e-13
0
1.16832e-11
1.47893e-13
2.9562e-13
3.14704e-11
-1.47804e-13
0
-1.47931e-13
-1.19752e-11
-1.47787e-13
1.52267e-11
0
-1.24269e-11
-1.47854e-13
1.47768e-13
0
-1.62603e-11
-1.33045e-12
1.80304e-11
-7.38965e-13
-7.39345e-13
-4.43846e-13
0
1.47931e-13
-5.91425e-13
-1.35997e-11
1.47833e-13
1.47834e-13
-1.89223e-11
-4.43589e-13
-1.25747e-11
-4.44018e-13
0
4.4399e-13
4.43817e-13
1.47899e-13
-1.47888e-13
1.29569e-13
3.23532e-12
-1.85133e-13
1.11035e-13
2.96102e-13
1.16896e-11
5.91782e-13
-1.15374e-11
1.47896e-13
1.331e-12
-5.91561e-13
0
1.21295e-11
8.87693e-13
1.47972e-13
-1.47943e-13
1.47914e-13
7.39417e-13
-1.18296e-11
1.28648e-11
-6.95003e-12
-7.54157e-12
-4.43667e-13
-4.43754e-13
0
1.21286e-11
-8.87274e-13
2.95708e-13
-1.19763e-11
-4.43625e-13
-1.50835e-11
-1.22726e-11
1.10897e-11
1.13872e-11
2.95828e-13
1.22744e-11
7.39291e-13
-2.95695e-13
1.53791e-11
1.13897e-11
4.14183e-12
4.58454e-12
1.52299e-11
-7.3935e-13
-7.39462e-13
-7.39363e-13
1.21239e-11
1.24199e-11
2.95813e-13
-2.95937e-11
-2.14562e-11
4.43772e-13
5.91512e-13
-4.43611e-13
-1.47885e-12
1.47872e-13
0
-2.95707e-13
4.43713e-13
0
-1.03582e-12
-2.95848e-13
-1.30133e-11
0
1.59717e-11
-1.47882e-13
1.59682e-11
1.24186e-11
1.47869e-13
1.70103e-11
1.61235e-11
3.1796e-11
-5.9145e-13
1.28648e-11
2.95791e-13
1.47907e-13
0
-2.95691e-13
1.50805e-11
-4.43613e-13
-1.68578e-11
-1.47862e-13
0
0
-1.24251e-11
-1.47939e-13
1.56783e-11
1.43441e-11
5.91452e-13
-1.6709e-11
-1.62656e-12
-5.9148e-13
1.47885e-13
-7.39588e-13
-3.69869e-12
1.47964e-13
0
1.4791e-12
-1.47889e-13
0
1.31801e-11
1.34941e-12
1.49394e-11
-1.9085e-11
-2.95943e-13
-5.91687e-13
1.03536e-12
1.47892e-13
-2.95763e-13
2.21818e-12
2.9576e-13
-2.9577e-13
5.91586e-13
0
1.47926e-13
1.59738e-11
1.67118e-11
-8.87275e-13
-7.39376e-13
1.30133e-11
7.54187e-12
-8.87279e-13
1.47885e-13
-1.21276e-11
2.95821e-13
1.19787e-11
1.24215e-11
-4.43609e-13
-7.39389e-13
1.15355e-11
-3.84523e-12
-1.24223e-11
-1.55272e-11
-4.4365e-13
2.95786e-13
2.07019e-12
4.43596e-13
-2.95742e-13
-1.47895e-13
1.67151e-11
1.7751e-11
1.47905e-13
-2.95768e-13
-8.87265e-13
-7.39405e-13
1.52299e-11
-4.43588e-13
7.39387e-13
2.95827e-13
1.1836e-12
-2.95908e-13
4.43779e-13