/*--------------------------------*- C++ -*----------------------------------*\
  =========                 |
  \\      /  F ield         | OpenFOAM: The Open Source CFD Toolbox
   \\    /   O peration     | Website:  https://openfoam.org
    \\  /    A nd           | Version:  10
     \\/     M anipulation  |
\*---------------------------------------------------------------------------*/
FoamFile
{
    format      ascii;
    class       volScalarField;
    location    "0.5";
    object      gradTy;
}
// * * * * * * * * * * * * * * * * * * * * * * * * * * * * * * * * * * * * * //

dimensions      [0 -1 0 1 0 0 0];

internalField   nonuniform List<scalar> 
46825
(
-2.98172e-13
0
0
1.1005e-11
1.03996e-12
-8.02256e-12
4.46156e-13
-7.29794e-12
1.49078e-13
7.45498e-13
9.22754e-12
1.18533e-14
1.21431e-11
2.04867e-11
1.39571e-13
-8.15291e-12
7.32036e-13
3.79241e-12
4.512e-13
7.74353e-13
5.15568e-13
-1.8223e-13
3.50823e-13
-1.05721e-11
-1.43288e-12
-2.05671e-13
1.74917e-13
2.49509e-11
-2.06028e-13
-5.85833e-13
-1.86982e-11
-3.38221e-13
-1.16926e-11
-9.38211e-12
2.72753e-14
2.22099e-13
-2.78375e-14
1.30996e-11
-4.84493e-13
3.15537e-13
9.45791e-12
-4.81572e-14
8.59658e-12
1.06984e-11
3.66832e-14
1.07259e-11
-6.12338e-15
-1.31668e-11
-4.09473e-14
-2.41753e-13
9.63283e-12
8.77611e-12
7.10095e-12
9.09866e-12
-6.26584e-13
1.00638e-12
1.14141e-13
-1.22986e-11
-1.08153e-13
-1.05111e-13
-8.85289e-12
9.13922e-14
-9.13091e-12
8.00757e-12
1.4144e-13
-1.10317e-11
3.20743e-14
-9.58284e-12
1.11633e-13
2.84099e-13
-6.28292e-13
-8.44723e-12
-1.56993e-11
-9.19012e-12
4.38238e-13
-7.91219e-13
2.28808e-14
3.64817e-13
7.51948e-14
-3.83379e-13
-1.46552e-13
3.56492e-13
-1.79132e-13
-8.78603e-12
2.53838e-14
-4.846e-14
-4.04918e-13
9.27299e-12
4.474e-14
2.02029e-14
0
-1.49096e-13
8.49067e-12
-7.43695e-13
0
0
2.9749e-13
-1.04278e-12
0
-2.98252e-13
0
1.49346e-13
0
-1.14912e-11
8.20532e-12
0
-7.4618e-13
-8.51233e-12
0
-8.95295e-12
1.1082e-14
-5.69856e-15
6.21037e-12
3.81363e-12
-2.9168e-12
-3.10383e-12
-2.61727e-13
-1.73972e-11
-1.70891e-13
-9.20795e-12
3.11807e-14
-3.79594e-13
-2.37085e-11
1.54377e-11
-1.3436e-11
-1.11343e-12
-9.43289e-13
6.68422e-12
1.06252e-13
-1.44286e-13
-2.08347e-13
1.68275e-13
1.01934e-12
-4.62042e-13
2.74277e-12
2.24128e-12
3.003e-13
-5.33984e-13
9.9541e-13
8.30489e-14
-7.61812e-14
9.87863e-14
2.25206e-11
-2.15691e-13
2.08734e-11
2.05177e-11
6.10485e-13
2.74892e-14
-1.22613e-13
3.51332e-13
-1.65343e-14
8.64161e-12
-6.90124e-14
1.06623e-13
-2.14448e-11
-2.12072e-11
3.13351e-11
3.23969e-13
-1.05148e-12
-3.70002e-14
3.37674e-13
-3.70152e-13
-3.09901e-13
-6.82798e-13
-4.28076e-13
-2.38508e-13
-3.18532e-11
1.91282e-11
-1.50024e-11
1.97463e-13
-5.24886e-12
-8.56661e-12
-1.91226e-11
-4.24274e-12
-1.97422e-11
-7.96791e-13
4.58888e-15
-1.78217e-11
-3.86825e-14
4.48724e-13
3.0193e-14
5.17091e-13
-6.36167e-13
8.22704e-13
5.45967e-12
2.84205e-12
-7.8533e-13
-6.02516e-12
1.53212e-11
-1.02595e-11
5.07349e-12
4.48054e-13
-4.47996e-13
1.49228e-13
4.47528e-13
-9.09992e-12
4.47715e-13
1.00062e-11
0
-1.02968e-11
-2.55069e-11
-1.49274e-13
-1.58099e-11
-1.19217e-12
1.23711e-11
1.19237e-12
-2.66738e-11
4.32542e-12
1.49293e-13
2.98382e-13
-9.72659e-12
4.10833e-13
-1.56725e-11
-1.82213e-11
-8.19403e-12
-3.67872e-12
-1.95424e-11
-3.58181e-13
-2.06332e-13
2.47442e-13
2.45487e-11
2.29886e-13
-2.20002e-11
6.06329e-11
9.21573e-11
6.22389e-11
9.14374e-11
-8.06007e-12
4.48129e-13
1.16841e-11
-3.66602e-12
1.03367e-13
4.27477e-11
-1.14762e-07
-1.57469e-07
-1.61609e-07
-1.38149e-07
-2.25749e-09
-4.49415e-13
-1.51369e-11
-1.17124e-11
-9.16074e-14
-4.46321e-11
-1.00506e-08
1.60408e-08
1.70749e-08
1.25588e-08
-4.04597e-10
-4.73882e-13
-1.17699e-11
-1.14725e-13
2.07004e-11
4.95587e-11
2.95973e-09
-3.8243e-09
-4.00742e-09
-3.14661e-09
1.165e-10
1.97499e-12
1.50125e-11
1.7037e-13
-4.61237e-11
-1.96599e-11
4.06064e-08
-4.46379e-08
-4.64304e-08
-3.63671e-08
1.39742e-09
-2.04735e-12
8.95137e-12
-2.32162e-13
5.47548e-11
1.08805e-13
1.18826e-09
8.29817e-09
8.51778e-09
7.92298e-09
8.93183e-12
9.21958e-13
6.73617e-13
5.83028e-14
-2.8796e-11
-6.15261e-12
1.90208e-11
6.29513e-13
-1.75915e-11
5.61379e-13
2.08127e-12
-6.91671e-13
-8.64354e-12
-1.49171e-13
0
0
-7.29932e-12
-3.57612e-12
1.40069e-11
2.68159e-12
1.49113e-13
-3.73156e-12
-4.47561e-13
-1.81546e-11
1.42676e-11
-5.9072e-13
-4.25573e-12
-2.78392e-12
-1.11349e-11
-7.92275e-12
-6.79312e-12
1.78385e-12
-1.48854e-13
-1.15584e-13
3.31734e-11
-1.32745e-11
7.06863e-09
6.37029e-09
6.32844e-09
6.45218e-09
4.27414e-09
-1.2024e-12
-1.08339e-11
2.07858e-11
-1.95324e-11
-2.15659e-09
2.72057e-05
2.80922e-05
2.82749e-05
2.79032e-05
2.82451e-05
4.39666e-09
-7.78573e-15
2.18718e-13
-2.40264e-11
-1.12761e-07
-0.706206
-1.08017
-1.0856
-1.0722
0.116018
9.2035e-09
1.41223e-12
-1.23795e-11
-3.94016e-11
-1.14328e-09
-0.00429637
-0.0146143
-0.0152305
-0.0138809
-0.00553177
3.31684e-10
9.42076e-12
-8.93037e-13
2.42446e-11
2.90792e-09
0.000388605
0.000954358
0.000937994
0.000934707
-0.0062975
-5.30837e-11
9.27192e-12
9.31174e-12
1.6752e-11
5.92332e-09
0.0232345
0.0421161
0.0426098
0.042206
-0.0074529
-1.40121e-09
-9.9093e-12
5.74607e-13
2.93056e-11
2.77962e-07
-0.00957848
0.720046
0.723555
0.712256
-0.0252521
-1.30485e-08
-1.44158e-13
-2.25457e-13
4.48543e-13
7.74395e-08
1.24746e-06
1.08999e-06
1.0747e-06
1.11437e-06
5.14985e-07
3.04071e-11
1.2483e-12
-1.48808e-13
-1.61944e-11
7.82283e-12
-3.81312e-12
4.10106e-12
2.19703e-12
-1.46668e-12
1.21046e-11
2.82349e-12
4.46502e-13
-2.97237e-13
4.45196e-12
-6.46822e-12
-2.90474e-11
-3.16681e-11
-1.35908e-11
-2.40967e-11
7.34777e-12
-1.85532e-11
0
3.33668e-12
1.77909e-13
-3.27018e-10
-8.95052e-08
-1.30159e-07
-1.22968e-07
-1.40747e-07
2.36397e-09
-1.37136e-11
-9.18599e-12
4.33801e-13
2.65138e-11
-1.46485e-06
0.0780682
-0.719778
-0.721688
-0.718606
0.0181896
8.87401e-09
-9.61987e-12
-3.38872e-12
5.5969e-10
0.0165641
3.1531e-06
9.21024e-12
-9.15155e-12
3.73223e-10
0.000433446
6.24343e-07
2.2579e-11
3.15395e-13
-6.09965e-11
7.27531e-05
-6.75101e-08
-5.14855e-13
8.94873e-12
-8.97764e-10
-0.000719045
-1.99e-06
-1.35623e-11
-9.16353e-12
3.42008e-11
0.000726496
1.10975e-06
-9.61506e-12
-9.01818e-13
-4.10688e-14
4.95557e-07
0.00033154
0.000446926
0.000448067
0.000443216
-2.96007e-05
1.881e-10
8.70265e-12
7.72823e-12
8.90069e-13
-1.26336e-11
1.07391e-11
2.25495e-11
1.24312e-11
1.0304e-11
6.90483e-12
7.41896e-12
1.79867e-11
1.11499e-11
1.21824e-11
-1.04471e-11
-5.22456e-12
-1.24145e-11
-4.61869e-12
-4.64132e-12
2.9411e-12
2.67426e-12
-1.4871e-13
-1.30215e-13
1.20315e-11
-3.33416e-10
-3.06363e-08
-1.4051e-07
-1.2948e-07
-1.51574e-07
2.04588e-09
-7.28544e-13
-2.05399e-13
-1.16719e-11
3.8601e-12
-1.52519e-06
-0.607139
-0.751747
-0.75383
-0.749543
0.0191542
1.33396e-08
-1.02963e-11
5.1563e-14
5.1568e-10
0.0205521
6.76091e-06
1.2914e-11
3.74757e-13
5.45145e-10
0.000559688
7.24141e-07
2.09139e-11
-9.75401e-12
-3.76509e-11
0.000113874
-9.09989e-08
-2.13315e-11
7.87819e-14
-1.29863e-09
-0.000994879
-2.68846e-06
-1.86852e-11
-6.80894e-12
8.17184e-11
0.000814327
1.24951e-06
8.86051e-12
3.36241e-13
-5.90233e-14
5.10326e-07
0.000340973
0.000500995
0.000502745
0.000492878
-3.13494e-05
2.27659e-10
1.78087e-11
1.6205e-11
6.83102e-12
-1.51424e-11
6.81573e-12
1.68838e-11
1.87597e-11
6.09059e-12
-2.02882e-11
-1.17336e-11
8.92182e-12
2.15687e-11
1.84372e-11
-1.8554e-11
-6.24376e-12
-8.08721e-12
-4.47636e-12
6.96628e-12
0
1.20447e-11
-1.48796e-13
8.54524e-12
3.16335e-11
-3.48496e-10
-2.40236e-08
-1.28541e-07
-1.21401e-07
-1.44613e-07
2.01921e-09
9.95607e-12
-3.29272e-13
-1.22449e-12
5.35474e-12
-1.53446e-06
-0.608268
-0.753294
-0.755346
-0.750839
0.0191914
1.36388e-08
-1.46866e-13
1.42736e-13
3.93621e-10
0.0206544
6.7561e-06
7.35496e-13
-1.10574e-11
5.2347e-10
0.000560473
6.81454e-07
-1.52493e-13
-5.79026e-13
-8.84389e-11
3.84724e-05
-1.20284e-07
-8.46069e-16
-7.84358e-13
-1.21962e-09
-0.00107152
-2.77626e-06
8.06855e-13
4.60954e-13
4.88077e-11
0.000817151
1.25002e-06
-3.24879e-14
3.21e-13
-2.38677e-13
5.11594e-07
0.000341858
0.000502901
0.000504698
0.000494559
-3.15245e-05
2.33752e-10
-6.267e-13
-2.97522e-13
-1.4863e-13
1.61856e-11
6.81998e-12
5.77484e-13
1.06835e-11
6.09434e-12
6.91565e-12
-3.12171e-12
2.97578e-13
2.97648e-13
-1.96374e-11
4.27281e-12
-7.2648e-12
-1.0116e-11
-1.80622e-11
-9.87514e-12
1.42847e-11
-1.38364e-11
1.48866e-13
-1.155e-11
-1.88146e-11
3.08541e-11
-2.338e-08
-1.29123e-07
-1.2048e-07
-1.44215e-07
1.90563e-09
-1.44523e-11
1.82588e-13
-2.15707e-14
-2.11889e-13
-1.51905e-06
-0.608263
-0.753353
-0.755434
-0.750945
0.0192142
1.35365e-08
-2.24298e-14
2.57121e-12
4.13325e-10
0.0206256
6.75151e-06
-2.63746e-14
-4.31775e-13
5.41495e-10
0.000560446
6.69768e-07
-7.89451e-14
9.00487e-12
-8.28964e-11
3.84859e-05
-1.54622e-07
-4.34656e-14
-2.38354e-14
-1.24144e-09
-0.00107153
-3.80216e-06
-1.43023e-13
-1.03584e-13
7.04648e-11
0.00082199
6.25107e-07
8.05709e-15
-2.35481e-13
5.69113e-13
5.10794e-07
0.000341977
0.000503123
0.000504907
0.00049476
-3.15244e-05
1.94581e-10
1.51684e-13
1.48836e-13
-8.47662e-12
-3.97511e-12
4.35595e-13
-1.58921e-12
1.35806e-11
1.07447e-11
6.91987e-12
3.56956e-12
-1.48862e-13
-1.19105e-11
2.38118e-12
-1.47421e-13
-2.10912e-11
-2.85118e-11
-7.67002e-12
-2.66071e-11
-3.53657e-12
1.48838e-13
0
-2.23322e-11
-4.10897e-13
1.85569e-11
-2.73546e-08
-1.35153e-07
-1.28033e-07
-1.50237e-07
2.08282e-09
-9.24117e-13
5.35179e-13
9.03815e-12
-1.26461e-12
-1.51536e-06
-0.608024
-0.752856
-0.754889
-0.750426
0.0191799
1.36255e-08
3.32051e-13
1.00747e-11
5.11695e-10
0.0206178
6.69971e-06
2.34245e-13
6.42852e-13
5.23881e-10
0.00056009
6.52594e-07
-9.16631e-12
-1.54616e-13
-6.42263e-11
3.85118e-05
-1.49539e-07
-1.53989e-11
-9.27015e-12
-1.26328e-09
-0.00107093
-3.03492e-06
9.29605e-12
5.61427e-14
6.95108e-11
0.000817326
2.63594e-06
1.55349e-11
-4.60989e-16
1.91348e-11
5.11088e-07
0.000341869
0.000501907
0.000503639
0.000493777
-3.13914e-05
1.05459e-11
-1.18334e-13
1.48893e-13
-2.08275e-12
2.12137e-11
6.39638e-12
1.17205e-11
2.05471e-11
7.70474e-12
2.79913e-12
1.69619e-11
0
0
7.44302e-13
-7.08105e-12
-5.83066e-13
-9.00045e-12
5.80632e-13
2.91442e-13
-3.24468e-12
2.97766e-12
1.4896e-13
2.1506e-14
1.10269e-13
1.40091e-11
1.15847e-08
1.83667e-09
1.07666e-08
-1.61584e-08
1.10433e-09
4.07022e-13
-2.96228e-13
9.06885e-12
2.33336e-11
-1.50436e-06
-0.598409
-0.731291
-0.732873
-0.729499
0.018495
1.21015e-08
-5.44571e-13
2.21571e-13
-2.14016e-10
0.0175337
4.77594e-06
1.16246e-13
-8.94283e-12
-2.9346e-11
0.000437379
3.59034e-07
3.9237e-13
-1.157e-11
1.32175e-11
3.72486e-05
-6.32599e-08
2.67766e-13
2.05828e-13
-1.24247e-10
-0.0007587
-1.43858e-06
-3.63468e-13
1.07541e-11
4.67197e-11
0.000776395
9.77225e-07
-9.3911e-14
-2.04025e-13
1.10646e-12
5.04234e-07
0.000286688
0.000331178
0.000331418
0.000333112
-2.82467e-05
2.20997e-10
1.1075e-13
-1.4893e-13
2.97625e-13
6.19258e-12
-1.57353e-11
-3.33806e-12
-1.45135e-13
-4.07956e-12
-1.82836e-11
-2.9768e-13
0
2.53202e-12
1.42915e-11
1.47498e-13
3.06056e-12
-3.77425e-12
3.04838e-12
-2.43369e-11
0
1.93559e-12
1.48968e-13
-9.68314e-12
1.78228e-11
1.89197e-11
1.29148e-10
1.19339e-10
1.23684e-10
1.02515e-10
-4.25753e-11
-3.01098e-12
2.96668e-13
-1.09763e-11
-1.78595e-12
-4.92256e-08
-7.96737e-05
-8.22954e-05
-8.24093e-05
-8.22237e-05
-7.27914e-05
1.40803e-10
8.55594e-12
-1.28064e-14
2.40658e-11
6.15266e-07
-2.56429e-09
8.19593e-14
-3.45508e-13
-2.38899e-11
2.10195e-08
-1.87867e-10
-9.24608e-12
-9.65994e-12
1.7668e-11
-3.11334e-09
2.28966e-11
-4.02988e-13
7.44065e-13
-1.74235e-11
-3.05988e-08
6.66999e-10
1.55113e-13
9.32585e-12
-3.53484e-12
-3.03104e-06
1.71496e-10
7.46055e-13
-3.15902e-13
8.38925e-12
8.20401e-09
-2.6649e-07
-2.79297e-07
-2.80088e-07
-2.76329e-07
-4.9514e-08
7.82898e-12
5.60191e-13
1.48953e-13
-1.33946e-12
8.84713e-13
0
2.9028e-13
-1.29175e-11
-1.45704e-13
4.86601e-12
0
1.48964e-13
-4.46831e-13
0
0
-8.72492e-13
-1.56313e-11
-2.0263e-11
2.90837e-12
-1.0023e-11
5.21062e-12
1.19166e-12
1.56957e-14
2.98138e-13
-1.8958e-11
-2.92748e-13
-1.84565e-11
-2.63877e-12
-1.60913e-11
-1.37717e-11
1.22442e-11
1.01762e-12
6.48372e-13
2.97817e-13
0
6.10962e-13
-5.11721e-13
2.26124e-13
2.5132e-11
-1.32282e-11
6.02678e-13
-1.04337e-11
1.22217e-11
2.1077e-11
4.68048e-11
-2.98046e-13
-7.06432e-13
-1.7553e-13
-3.77908e-11
-1.12023e-13
-2.62492e-13
1.026e-11
-1.19267e-11
1.70049e-11
-1.63974e-14
-2.45243e-11
-9.87851e-12
1.36333e-11
2.92563e-13
-4.91446e-13
2.37935e-11
-9.06448e-12
-3.52353e-13
-2.11831e-11
-7.69845e-11
8.77553e-13
1.06455e-11
-1.33142e-11
2.12034e-11
-8.19857e-12
2.17587e-13
9.58092e-12
1.46546e-12
1.2021e-11
-7.31297e-14
2.68146e-11
9.24627e-12
1.48945e-13
4.01805e-12
-1.47362e-13
0
2.89433e-12
3.61787e-12
2.76244e-12
-7.36742e-13
-2.05388e-11
0
0
3.43819e-11
-3.09369e-12
-2.90543e-12
1.11297e-11
-1.06962e-11
-4.64889e-12
8.84017e-13
-5.3587e-12
2.97885e-13
-4.89717e-14
2.20645e-11
4.32877e-13
2.92689e-13
1.25921e-11
-1.14303e-11
0
2.10129e-11
1.07526e-11
5.4056e-14
-6.84649e-14
5.95729e-12
-4.59176e-11
-4.41977e-11
-5.76199e-12
1.65428e-11
1.17761e-11
-2.99577e-11
3.10117e-12
-2.85962e-13
-9.57478e-14
-2.92689e-13
0
7.39065e-12
-2.70807e-13
1.22089e-13
0
4.12845e-11
2.26394e-13
1.12064e-13
-6.7328e-13
0
-4.31294e-11
7.96141e-14
9.59712e-12
9.7605e-14
-5.55649e-12
-5.888e-13
2.51004e-11
-1.34203e-11
9.98511e-12
5.88468e-12
6.70661e-13
-2.54935e-11
-9.72837e-12
9.46948e-12
-4.4801e-12
0
4.50198e-12
2.1968e-13
6.60413e-12
8.09544e-12
-1.442e-11
0
1.31409e-11
0
-2.38087e-12
-1.32573e-11
0
1.06948e-11
7.65983e-12
-4.35757e-13
-4.41874e-13
-3.12504e-12
5.95761e-13
5.95711e-13
3.12547e-12
0
3.63103e-12
1.12713e-11
-3.0346e-12
-4.35738e-13
-9.13341e-12
-1.60745e-11
1.22124e-11
8.98754e-13
6.26811e-13
-4.26482e-13
-4.44955e-13
1.08371e-11
-2.93136e-13
-5.84976e-13
-1.25741e-11
-1.70262e-11
1.1334e-13
-3.00012e-13
-5.95769e-13
-4.1026e-11
-7.78686e-13
1.30875e-12
1.18199e-12
1.17784e-12
2.63575e-11
-3.01977e-13
-3.38555e-12
-9.83445e-12
-2.22964e-14
-2.32477e-12
1.70335e-13
-4.99778e-13
-7.37282e-14
-1.96224e-11
-2.94955e-12
3.79719e-13
-8.67088e-12
9.81601e-12
1.90529e-11
-3.95963e-11
4.63153e-14
1.00629e-11
-3.23955e-13
5.84978e-13
1.76675e-12
2.03495e-12
1.13464e-14
1.05619e-11
-5.88444e-13
-5.41865e-11
-1.46409e-12
-9.76136e-12
2.44473e-13
1.64282e-11
8.18602e-13
2.03482e-12
-4.39619e-13
4.62524e-12
-9.70392e-12
-7.02853e-12
-1.76009e-11
2.87134e-13
-1.07228e-11
-7.1422e-12
1.76732e-12
5.80911e-13
-4.33469e-12
-3.32325e-12
-1.13275e-11
1.1046e-11
2.23206e-12
4.46789e-13
2.82973e-12
4.46497e-13
1.47319e-13
4.06801e-12
-1.64802e-11
2.89126e-13
-1.14776e-11
2.79908e-12
1.48834e-12
-1.02767e-11
-1.00883e-11
2.80355e-12
-4.19483e-13
1.60924e-13
-1.60811e-11
6.94419e-12
1.1698e-11
-7.3917e-12
1.70878e-13
-1.07915e-11
1.9806e-12
-2.08499e-12
3.70716e-11
6.6968e-13
1.13596e-11
-1.77289e-12
-2.76777e-11
2.56385e-11
3.01956e-13
-1.58216e-14
1.28645e-11
-7.52789e-13
5.81142e-13
-1.05606e-13
-1.46826e-13
1.17464e-11
1.45793e-13
2.94948e-12
-1.86455e-11
-1.95298e-13
-5.17948e-13
6.18337e-13
-1.77288e-11
1.7683e-11
3.79172e-13
-1.3026e-11
-1.16978e-12
0
-3.66993e-13
8.52543e-12
-9.57301e-12
3.38325e-11
1.25138e-12
-1.90118e-11
-9.13829e-12
-3.76854e-13
-3.26987e-11
-2.18508e-11
-6.03166e-12
4.83477e-12
1.14499e-11
-1.94032e-11
1.49338e-11
1.97306e-11
-8.50093e-12
9.23372e-12
-5.80319e-12
0
-1.46717e-11
-1.44546e-13
2.15375e-11
1.45267e-13
1.4729e-13
2.08327e-12
9.08505e-12
1.0128e-11
6.84681e-12
1.47385e-13
2.18208e-12
5.93776e-12
3.62054e-12
2.03656e-12
2.65289e-12
-1.48847e-13
-1.7874e-11
-8.91469e-12
-6.85589e-12
1.73428e-12
-1.05805e-12
-6.6683e-12
2.93072e-13
1.8621e-12
-5.47449e-12
-6.56867e-12
-9.12334e-12
-9.40102e-12
-2.08419e-12
-3.51429e-12
-9.18876e-13
3.17723e-13
0
5.88424e-13
-1.3102e-11
-3.01753e-13
8.54866e-12
9.42323e-12
9.11151e-13
-4.06573e-11
-4.57179e-13
-1.36217e-13
1.36889e-13
6.76015e-13
-3.71314e-11
2.4523e-13
-3.7199e-13
9.08522e-12
2.93069e-13
0
-1.91532e-13
1.55984e-13
-4.14806e-13
-2.39994e-11
-4.00093e-11
5.29381e-14
2.49446e-13
4.94246e-13
2.29398e-11
1.15174e-12
1.3028e-12
-3.65846e-13
1.90128e-13
1.05912e-12
-1.15273e-12
-7.33214e-12
4.0965e-12
2.19871e-12
6.04751e-12
6.28962e-12
-1.79798e-13
-8.42668e-14
-9.08581e-12
2.64881e-11
3.83122e-12
-2.61814e-12
-1.73765e-11
1.01363e-12
-2.76352e-12
3.83117e-12
1.81559e-11
2.97897e-13
0
0
7.81867e-12
1.12263e-11
-3.19523e-12
-5.37362e-12
4.8107e-12
2.95014e-13
4.02016e-12
1.48985e-13
1.92504e-13
-9.29157e-13
4.33684e-13
1.51022e-11
-1.26534e-12
-3.8605e-12
6.57323e-13
-3.27684e-13
1.86957e-11
1.52929e-13
1.58409e-14
8.92868e-13
-1.3221e-12
2.25755e-11
2.69128e-11
2.36659e-12
-1.71839e-11
-1.5187e-11
-1.92671e-11
-4.63744e-14
8.88218e-14
-7.92964e-13
4.13243e-11
2.28503e-13
-1.71811e-13
-2.89085e-13
2.49812e-11
-6.39307e-13
-7.39658e-13
9.60788e-14
-8.22548e-15
-2.45862e-11
0
-1.76785e-11
2.46763e-14
-3.26571e-13
-4.18674e-14
-3.37994e-11
1.84655e-11
-1.29257e-13
-4.81141e-14
2.83605e-13
-2.92666e-12
1.01319e-11
-8.74314e-12
9.75346e-14
5.31953e-12
6.03348e-13
-2.69906e-12
1.25284e-11
1.49867e-11
-1.88671e-11
-1.9724e-11
-9.80016e-12
-6.14052e-13
-1.4898e-13
-1.042e-12
1.4749e-13
0
-1.45213e-13
1.45212e-13
1.98226e-11
1.45999e-11
0
8.34318e-12
9.38483e-12
0
3.98372e-12
5.82853e-13
0
0
-3.64172e-12
-4.27769e-12
2.82952e-12
8.64219e-12
-7.57252e-12
2.32988e-13
2.29358e-11
-2.81288e-11
-2.29555e-11
2.67699e-11
2.19065e-11
5.01865e-14
-7.91251e-12
3.40078e-13
-8.99375e-12
-2.97779e-13
-6.69065e-11
3.7098e-11
4.43889e-11
6.26455e-12
1.26481e-11
-2.15233e-11
-1.64781e-12
-1.76907e-11
8.01747e-12
7.80204e-13
-2.17103e-13
1.79515e-12
-3.88338e-14
2.12467e-16
-2.92675e-12
-1.13686e-11
-4.6512e-13
9.19999e-12
-4.03703e-14
5.88307e-13
1.30573e-12
-2.8398e-11
-9.69291e-12
-3.81224e-14
1.48784e-12
-4.42679e-11
3.97961e-11
-1.87764e-13
-1.43468e-13
4.48721e-13
-1.05827e-12
-1.15033e-11
9.38182e-12
4.43443e-13
-3.90184e-15
-2.77973e-11
1.38587e-12
1.36355e-11
5.53745e-12
-2.2027e-13
6.9566e-12
6.51359e-13
1.53344e-13
2.98001e-13
-2.50127e-11
2.65456e-12
3.4956e-12
0
0
4.51487e-12
-4.57136e-12
-2.03969e-11
2.98001e-13
0
3.57336e-12
3.39176e-12
4.07273e-12
2.89397e-13
-5.78735e-13
3.3439e-12
1.03179e-12
-8.93382e-13
-1.23664e-11
-5.02767e-14
2.98173e-13
2.53126e-13
-2.26266e-11
-8.78508e-13
-1.90508e-11
-2.54468e-11
2.60438e-11
-2.98717e-13
-9.7732e-12
1.84773e-13
1.66799e-11
-6.83869e-14
3.04251e-11
6.18203e-11
4.60015e-11
3.17481e-11
-2.44691e-12
3.64139e-12
8.96895e-13
-5.82803e-13
-1.5312e-11
-5.50227e-11
-1.50618e-11
9.52973e-12
-1.3103e-13
-1.17123e-12
0
1.04487e-13
1.92582e-12
6.28117e-13
1.90498e-11
0
-4.77529e-13
-3.70336e-12
3.39584e-13
-1.92855e-11
-5.87926e-13
2.277e-15
9.7778e-12
-1.07684e-11
0
4.83814e-11
-2.72008e-13
1.20474e-11
1.17821e-11
2.44148e-11
-1.7557e-11
1.52488e-12
-1.40462e-11
-1.7883e-11
1.55202e-11
2.01214e-11
5.56402e-13
1.10064e-11
2.22003e-11
8.63395e-12
2.94718e-12
9.88458e-12
1.4466e-13
1.59126e-12
3.48861e-12
-1.19356e-11
1.63745e-12
2.98e-12
-5.95845e-13
2.08447e-12
-1.38596e-11
0
-1.44589e-13
-1.44574e-13
-4.21383e-12
-2.94722e-13
-3.87129e-12
0
2.11724e-12
9.3339e-12
-1.40695e-11
2.10682e-11
-3.08738e-13
-3.55753e-13
1.43826e-13
-2.11959e-11
3.03379e-11
-9.07818e-13
7.46992e-13
-4.34873e-11
1.22764e-12
-9.86831e-12
-5.8386e-11
1.47726e-11
-1.23658e-11
3.24088e-11
-2.1741e-11
1.1857e-11
-2.35364e-12
2.38878e-11
-4.63805e-12
1.33855e-12
1.26728e-12
-1.13496e-13
-4.41794e-13
0
-6.61833e-13
-1.19412e-11
2.15987e-14
-5.24017e-14
1.06361e-11
5.36188e-13
-5.56215e-12
-1.26565e-13
-6.15904e-13
0
-2.37633e-13
-1.69704e-13
-1.07924e-13
5.88444e-13
-1.51679e-12
-8.18831e-13
5.33987e-12
2.18094e-14
-1.71484e-11
-2.70272e-11
-7.04956e-12
-1.02554e-12
-2.93567e-12
-8.46143e-12
-2.92828e-13
-4.8775e-13
4.12129e-13
0
-3.12607e-12
1.17863e-11
-1.65621e-11
-3.32465e-12
-4.04731e-12
-3.05082e-12
-1.87103e-11
-1.29506e-11
0
0
-2.23403e-12
-4.27716e-12
1.49809e-11
-1.12841e-11
1.14276e-11
2.73304e-11
-5.30702e-12
5.95772e-13
1.19246e-12
3.17165e-13
1.12798e-12
2.63247e-11
1.45678e-11
-2.77614e-11
1.93553e-11
2.68929e-11
1.77791e-13
-1.60278e-11
-1.9055e-11
3.0161e-12
-2.97875e-13
-2.3509e-11
4.43846e-13
2.06441e-11
0
0
1.18091e-11
1.69114e-11
-1.12685e-11
-5.52816e-13
-1.52555e-13
1.62346e-11
-1.94588e-11
9.41069e-12
-2.68417e-12
-3.48866e-13
3.06713e-11
1.92306e-11
4.43512e-13
4.35331e-13
1.23401e-12
0
-1.72187e-11
5.38173e-14
-3.36157e-13
-1.38626e-12
0
1.7534e-11
-9.49574e-12
-1.62773e-11
0
-4.05097e-13
-2.92777e-13
-2.24869e-13
1.54306e-14
-1.4628e-13
5.98319e-12
-7.84904e-12
-4.39568e-13
-1.62954e-11
-3.86623e-11
7.68683e-12
-7.46707e-13
9.4054e-12
1.62471e-11
-6.40313e-12
-1.47386e-13
1.45353e-13
-1.44632e-13
2.74798e-12
3.92448e-12
3.68452e-12
3.72267e-12
1.49064e-13
0
-7.45265e-13
6.05469e-12
1.93881e-11
1.55239e-11
-1.4507e-13
-6.99452e-12
1.18104e-11
2.75771e-11
1.08888e-11
-1.21795e-11
2.04352e-11
3.72384e-14
1.50297e-11
3.70337e-11
1.65207e-12
-2.41634e-11
1.19337e-11
2.08501e-11
1.08469e-11
8.512e-12
-2.17382e-11
-3.58591e-13
-1.00288e-12
-3.9899e-11
-9.18257e-13
3.01854e-11
1.58398e-12
-2.35422e-11
-8.72378e-12
2.3939e-11
-4.32638e-13
1.15952e-12
2.1981e-11
-2.98809e-14
-2.64183e-13
6.42037e-13
1.17918e-12
-2.98463e-13
9.22998e-12
-1.1126e-11
2.34054e-13
8.80643e-11
-3.85143e-14
3.70033e-13
-1.81332e-11
-2.94245e-13
3.31117e-13
-2.16329e-13
-1.94961e-13
1.27437e-13
8.82672e-13
2.77192e-12
-6.4683e-13
-3.69668e-13
-1.75023e-12
-2.15993e-11
-1.68676e-11
1.79354e-11
3.65854e-13
-1.39278e-12
-2.91481e-13
-2.56063e-12
5.34789e-13
-1.46378e-12
-1.07396e-11
2.10149e-11
7.38014e-12
1.96697e-11
0
-1.31998e-11
1.39875e-11
2.6568e-12
-6.70687e-12
-1.6409e-12
0
1.49275e-13
-2.07518e-12
-3.52393e-12
5.85517e-13
0
1.46796e-13
-1.43758e-11
-1.50778e-11
-8.50886e-12
-1.64387e-11
-7.81439e-12
-7.11429e-12
5.95666e-12
1.8408e-13
5.38032e-13
2.50175e-11
-4.05653e-11
-3.5679e-11
6.34027e-13
-6.86001e-13
-5.96248e-13
6.47053e-11
-1.62446e-12
1.67415e-11
1.45265e-12
-3.24101e-11
5.545e-11
2.35585e-11
9.1192e-12
7.60428e-12
-1.99226e-11
0
-2.12485e-11
-1.45204e-13
-7.37505e-14
-8.35591e-14
2.78556e-12
2.16777e-11
2.0175e-13
-2.06147e-12
2.47803e-11
-5.82629e-13
3.93394e-13
-2.50151e-14
-1.35303e-11
-6.62191e-12
4.64463e-13
-1.85433e-11
1.0609e-13
2.18056e-12
2.65136e-12
-9.29149e-13
1.94316e-11
7.107e-14
1.3251e-11
-7.6902e-13
2.39304e-12
-7.39907e-12
-2.24991e-11
-5.0483e-12
3.34836e-12
-8.7655e-13
-1.72616e-11
-1.25472e-13
8.50886e-12
0
0
-7.33901e-12
5.85444e-13
1.46363e-13
-1.46785e-13
-1.14102e-11
-7.91155e-12
0
-9.40036e-12
-7.76472e-12
-1.3396e-12
2.96481e-13
1.48086e-13
-1.48081e-13
-3.26109e-12
-7.4418e-13
0
1.49223e-13
-1.29101e-13
6.27445e-12
-1.34028e-12
1.74985e-11
4.5789e-14
9.18879e-13
-1.10332e-14
-6.20617e-14
-2.39773e-11
8.14836e-14
9.78902e-12
-1.82257e-11
1.62267e-12
-3.38476e-11
5.92717e-11
-2.77127e-11
2.64771e-11
7.39506e-12
3.2154e-11
-1.49964e-13
6.94853e-13
1.89299e-11
2.25912e-12
1.18943e-12
-2.61246e-13
-3.98835e-13
-2.89237e-11
2.65286e-13
-1.83216e-11
8.17252e-14
-6.51675e-13
2.81742e-11
-1.48914e-13
1.39836e-12
6.00566e-14
-1.20322e-11
3.82248e-13
-2.70231e-12
-1.1133e-12
-2.11011e-13
7.41816e-14
-8.89476e-13
-4.4096e-11
7.38953e-13
8.88697e-12
9.42221e-12
1.12131e-12
1.84076e-11
-7.45537e-12
1.06182e-11
-1.91948e-13
-1.09308e-12
-6.31196e-12
1.92876e-13
-1.15808e-13
-2.686e-12
-2.13489e-11
3.72002e-12
-2.51958e-12
0
-1.48084e-13
-2.96449e-12
7.44113e-12
0
-8.80623e-12
8.93264e-12
8.93367e-13
-5.9451e-13
-1.03854e-12
-3.41102e-12
4.44918e-13
4.30237e-12
-2.74943e-11
-2.97762e-13
-2.97756e-13
9.06142e-12
4.21434e-13
-3.59193e-12
-1.54854e-12
6.33912e-12
2.06309e-11
-1.86188e-11
8.73093e-13
-1.77094e-11
-3.43025e-13
8.54404e-12
0
-1.9475e-11
9.42061e-12
5.56962e-12
-2.76347e-11
9.37769e-12
-2.23105e-11
-5.94388e-12
4.20603e-13
8.94927e-12
0
2.88514e-11
-6.11509e-12
-1.0369e-12
-1.09569e-11
1.33038e-12
1.81123e-12
4.04893e-11
1.88134e-13
-8.9485e-12
1.18708e-12
1.49711e-11
1.30527e-12
1.3235e-12
-2.42718e-11
9.25566e-13
6.03712e-12
-1.66015e-11
1.05124e-13
-8.83108e-12
-8.90667e-13
1.19053e-12
2.67233e-11
-1.02572e-12
4.58079e-12
-1.87869e-12
-2.33843e-11
-7.35654e-13
-2.51747e-13
1.53016e-13
-2.96549e-13
1.11687e-12
-2.68833e-11
1.20433e-12
1.63887e-11
4.13652e-13
3.88782e-11
-2.83164e-11
-4.05772e-13
1.57511e-11
-1.34249e-12
-2.47941e-11
1.26075e-11
-1.62018e-11
1.1074e-12
-7.8943e-13
7.87811e-11
2.83848e-11
9.42096e-14
-4.3782e-13
1.0134e-11
-2.91916e-13
8.18999e-13
2.29267e-11
-2.85752e-11
1.92384e-11
-2.15191e-11
7.56001e-15
-6.78118e-13
-1.56315e-11
-4.46581e-12
4.60578e-12
1.48327e-13
1.3939e-11
-1.48296e-13
1.23128e-11
5.94417e-13
0
-5.95625e-13
5.93864e-13
1.009e-11
-1.48185e-13
-9.62195e-12
-1.43549e-11
0
-2.48681e-11
-9.18711e-12
1.92891e-12
-5.34476e-12
4.8506e-13
8.85354e-14
3.93451e-12
-4.79451e-13
5.20159e-12
-3.17264e-12
-7.04439e-12
-5.39184e-12
-1.02929e-11
1.04329e-13
3.27673e-14
-1.01969e-11
8.54786e-12
1.27527e-11
1.96632e-11
9.93094e-13
1.66481e-11
-3.6288e-13
-1.52619e-11
4.95756e-12
1.51131e-13
8.26042e-12
-2.64313e-12
5.86976e-13
-2.12281e-13
-1.33694e-12
7.981e-13
1.5297e-13
4.35162e-12
1.39477e-14
-6.28771e-14
9.22733e-12
-7.34971e-12
-2.95359e-13
1.30865e-11
-2.20729e-12
-7.56329e-12
1.89101e-13
-7.68026e-12
-9.39918e-12
1.02551e-11
1.64406e-12
1.17642e-12
0
2.58425e-12
1.33362e-13
2.72185e-13
2.22152e-11
-1.454e-11
1.39067e-13
-3.25691e-13
-7.16068e-13
-1.73372e-11
5.89302e-13
-1.24599e-11
-3.85634e-12
-3.68614e-14
-2.19009e-11
7.44757e-12
4.49142e-13
-9.98932e-12
-1.03412e-11
1.75608e-11
-1.69972e-11
-1.80793e-11
6.74004e-12
-4.79746e-13
2.04307e-12
1.36502e-11
-1.02965e-13
1.22364e-13
-8.20044e-12
-2.04775e-11
2.40875e-12
1.52725e-11
2.2504e-12
1.84409e-13
2.99139e-12
-1.52469e-13
8.78586e-12
-1.48459e-13
2.96745e-13
6.96616e-12
0
1.05052e-11
4.43896e-13
-7.4002e-13
-1.03714e-11
0
0
-8.003e-12
1.15541e-11
1.03614e-12
-1.47941e-13
0
-8.57934e-12
-1.18353e-12
8.14092e-12
0
0
-8.49842e-12
8.91455e-13
-9.60867e-12
-3.49488e-13
8.30587e-14
-8.33029e-12
-6.34885e-15
1.98549e-11
1.13849e-11
2.35192e-12
8.54507e-12
2.71194e-12
-3.10813e-13
-4.93963e-13
-3.43486e-12
1.82881e-13
1.03763e-12
1.01815e-11
2.64915e-13
1.64798e-13
9.03817e-12
-5.62838e-13
2.39145e-11
1.16017e-13
-9.6874e-14
-7.27221e-14
-1.78344e-13
-3.93643e-13
-1.26089e-11
-4.96096e-12
1.19052e-13
-2.53274e-11
-2.86996e-13
1.39747e-13
3.63174e-12
9.41625e-15
7.60959e-14
-1.12398e-11
9.89314e-14
-4.09776e-13
1.24499e-11
4.65148e-13
-1.42765e-11
9.02019e-12
-1.44143e-13
-1.87192e-13
6.65012e-13
-2.0813e-11
8.79805e-13
2.94474e-12
4.04761e-13
1.10604e-11
1.63967e-13
8.34931e-12
-3.75713e-13
-9.77625e-12
7.80979e-14
1.22598e-12
1.42908e-13
-8.15588e-12
-1.23423e-11
-3.9449e-13
2.44482e-13
-8.67039e-12
1.0301e-13
9.5722e-14
1.00797e-11
9.36677e-12
-5.01998e-13
1.72305e-13
-1.02334e-11
-1.18429e-11
-3.69218e-13
-8.65518e-12
9.16046e-14
9.33326e-12
-9.35357e-14
-1.1453e-13
-5.09729e-14
8.22173e-12
-9.48456e-12
-1.18494e-11
0
2.95826e-13
-2.95764e-13
-4.43633e-13
-1.05011e-11
1.47991e-13
1.48111e-13
1.482e-13
1.42134e-11
1.33212e-11
-4.43868e-13
1.09457e-11
-7.39513e-12
-5.916e-13
0
2.95897e-13
-9.17648e-12
8.14283e-12
5.61073e-13
4.88071e-14
-5.65023e-14
1.107e-11
-7.50655e-12
-9.13914e-14
-2.54453e-14
-1.18156e-13
-9.49118e-12
9.3941e-12
-1.42281e-11
-5.26078e-12
1.06878e-12
-4.17138e-14
-3.72776e-13
4.45382e-13
4.89255e-14
-5.9627e-13
-6.42324e-13
-8.34742e-12
-6.0524e-13
2.66676e-13
1.79697e-14
-4.26668e-14
8.56719e-14
-8.17858e-12
-2.12926e-14
1.44624e-13
7.71734e-14
-1.43614e-11
-5.97316e-13
-5.56789e-12
-1.0058e-11
3.86099e-14
6.61987e-13
-8.70598e-12
-7.51756e-14
-4.88163e-13
-1.33636e-13
-1.5501e-13
8.59564e-12
-1.37948e-13
-6.5153e-13
-3.64691e-13
2.76372e-13
8.1124e-12
1.02925e-11
8.67928e-12
-9.72506e-12
5.03948e-12
6.29596e-13
-2.80685e-12
8.80115e-12
-1.03502e-13
-5.51712e-14
8.96131e-12
-1.57739e-13
8.06699e-13
1.42259e-13
3.20039e-13
-8.74595e-12
2.53126e-13
5.38744e-13
4.48762e-14
-9.93056e-12
5.23838e-14
-9.68736e-12
-8.97052e-12
9.37304e-12
-1.76623e-13
1.70489e-12
8.48351e-12
-8.24517e-12
3.57253e-15
8.89598e-13
1.20347e-11
9.20917e-12
-2.13461e-13
-2.82533e-14
-2.26493e-13
1.33241e-12
8.43603e-12
-8.58017e-12
5.9153e-13
1.04981e-11
1.21244e-11
8.57673e-12
1.47923e-13
-1.47988e-13
0
4.4393e-13
0
-7.1004e-12
2.95805e-13
0
9.31723e-12
-7.39494e-13
-1.21293e-11
1.47947e-13
0
1.05045e-11
5.55231e-13
-7.28928e-12
-6.69148e-13
-3.32655e-13
9.38749e-12
-3.35816e-13
-2.36177e-11
-4.45224e-14
1.76646e-13
-1.45152e-14
1.96185e-13
1.20818e-11
2.35238e-13
9.3992e-13
-4.73679e-14
-4.58449e-15
-5.02744e-13
5.61772e-14
2.54634e-14
-1.00293e-11
-1.01444e-12
-3.13952e-13
5.82591e-13
6.27071e-13
1.05046e-11
-1.42534e-13
1.09076e-11
-1.28815e-11
-1.16309e-11
-8.66542e-12
2.44375e-13
-2.08247e-11
-3.18823e-13
-9.35203e-13
3.43693e-13
4.30849e-13
-4.55448e-14
-2.40414e-13
2.12878e-14
1.04792e-11
3.67536e-13
-1.1701e-11
7.04214e-16
-3.42932e-13
-1.02983e-11
-9.93853e-14
1.73003e-13
7.37308e-13
1.12942e-11
8.48009e-12
-1.17005e-13
-3.53184e-12
-1.07264e-11
-3.99653e-13
-6.60974e-13
-1.02189e-13
2.13981e-13
-4.13908e-13
1.09383e-13
-6.99731e-13
-1.83779e-13
1.14434e-11
5.11963e-13
-5.24107e-14
-1.85091e-13
5.03814e-14
-1.12339e-11
1.21492e-11
0
-3.36088e-14
1.14084e-13
1.23075e-11
1.05547e-11
1.86409e-13
1.34444e-14
6.59599e-14
-2.17439e-13
5.91572e-13
-1.87937e-13
-9.61801e-12
-1.4794e-13
1.47902e-13
1.47874e-13
1.4786e-13
-4.43571e-13
2.95733e-13
1.13876e-11
0
-2.95913e-13
-5.91721e-13
9.46663e-12
0
-2.07047e-12
0
0
1.47884e-13
-1.47893e-13
-1.47911e-13
0
-5.91666e-13
1.84881e-11
1.47891e-13
0
1.18307e-11
5.91526e-13
1.0943e-11
-1.3309e-12
1.47892e-13
1.13886e-11
0
5.9156e-13
-9.46455e-12
2.07045e-12
2.95796e-13
7.39469e-13
1.47879e-13
-1.06466e-11
8.13311e-12
1.47886e-13
0
-9.02084e-12
1.47889e-13
0
-1.25738e-11
-4.43762e-13
-1.09441e-11
8.87206e-13
2.95722e-13
-1.15337e-11
0
-2.95763e-13
9.31745e-12
-3.84607e-12
-1.47952e-13
-4.43834e-13
1.77489e-12
2.02583e-11
-8.27987e-12
0
2.95759e-13
-7.39385e-13
-1.25708e-11
-1.4792e-12
-1.02081e-11
1.47937e-13
1.13883e-11
0
-1.47849e-13
1.47854e-13
1.47881e-13
-9.46385e-12
-9.90765e-12
1.03524e-12
-1.47905e-13
-1.47898e-13
-1.33084e-12
-1.02016e-11
0
0
0
-1.47878e-12
1.28644e-11
1.47864e-12