/*--------------------------------*- C++ -*----------------------------------*\
  =========                 |
  \\      /  F ield         | OpenFOAM: The Open Source CFD Toolbox
   \\    /   O peration     | Website:  https://openfoam.org
    \\  /    A nd           | Version:  10
     \\/     M anipulation  |
\*---------------------------------------------------------------------------*/
FoamFile
{
    format      ascii;
    class       volScalarField;
    location    "0.5";
    object      gradTx;
}
// * * * * * * * * * * * * * * * * * * * * * * * * * * * * * * * * * * * * * //

dimensions      [0 -1 0 1 0 0 0];

internalField   nonuniform List<scalar> 
47104
(
1.3959e-13
-6.19299e-15
5.86824e-13
5.51545e-13
-1.94693e-13
1.55231e-13
2.56491e-13
5.25537e-14
-2.57264e-15
-1.39584e-13
9.32208e-15
-9.24761e-14
1.62571e-13
-5.22259e-13
1.36972e-14
1.29422e-11
3.95084e-13
-1.23524e-11
-9.89682e-12
-9.25093e-12
-1.39536e-13
9.21406e-14
5.29148e-12
1.93937e-14
-5.90722e-12
1.64854e-13
6.41432e-13
2.23745e-13
6.41274e-13
2.88441e-13
-8.33628e-12
-8.87846e-12
-6.4076e-13
1.03193e-13
-1.18142e-13
1.00991e-13
-5.54172e-13
-1.24362e-13
7.63538e-13
1.57889e-13
1.4855e-13
5.42096e-14
-1.70437e-14
-1.50007e-13
-1.59357e-14
-2.16506e-13
3.5623e-14
-1.49982e-13
1.7877e-13
0
0
8.5555e-13
1.64541e-13
-8.74391e-14
1.28379e-13
3.43714e-12
1.17444e-13
5.14109e-12
-3.57241e-13
-9.20979e-12
8.61615e-12
4.37595e-13
-8.76717e-12
3.83876e-13
-5.24226e-13
6.67922e-15
4.82651e-13
2.89095e-12
-1.5772e-13
-2.8161e-12
4.56183e-13
-2.05149e-13
-4.48828e-13
-1.26472e-11
-8.9938e-14
1.29436e-11
-1.40107e-13
-4.37788e-14
7.04264e-13
7.35228e-13
-1.39766e-13
1.78412e-13
5.59315e-13
-1.59196e-13
-5.49235e-13
1.03655e-13
9.96741e-12
-4.9483e-14
2.51927e-13
1.02763e-11
1.39609e-13
4.66196e-13
-1.21779e-13
-3.50837e-13
-9.70504e-12
1.57602e-13
8.9041e-12
-8.98279e-12
6.05033e-13
8.80604e-12
-1.49214e-13
-2.17131e-13
-2.76849e-12
8.4523e-14
2.82477e-12
-2.09818e-14
1.04924e-13
-2.00804e-13
9.82987e-14
4.47613e-13
-1.49336e-13
-1.62266e-11
-7.94488e-12
1.63566e-11
8.05062e-12
1.30882e-11
8.80416e-12
-2.39078e-11
-8.70758e-12
1.06023e-11
8.36117e-12
1.18211e-11
-7.38181e-12
1.16772e-12
-3.50106e-13
-2.04199e-11
3.94023e-11
-1.9245e-11
0
1.493e-13
1.49207e-13
-4.07493e-12
-5.3286e-14
4.57472e-15
-2.52231e-11
2.52149e-11
-3.18502e-14
-1.68992e-11
-1.00563e-11
-2.98402e-13
-1.49167e-13
3.55227e-12
2.1768e-12
-2.34314e-12
2.17856e-13
-1.70696e-11
1.72336e-11
-6.41436e-13
-1.06191e-11
-1.0292e-11
8.80139e-12
9.23627e-12
5.59002e-13
6.53321e-13
1.02411e-11
-1.04168e-11
2.33371e-11
-2.27755e-11
-1.27881e-11
2.68495e-12
2.14895e-11
1.30861e-12
-1.59199e-11
-1.83819e-11
1.89861e-11
4.21874e-14
2.25883e-14
2.37281e-11
-2.05623e-12
1.95471e-11
0
-2.61892e-13
2.6203e-11
-2.54426e-11
2.08462e-13
9.52966e-14
-1.40128e-12
2.58775e-13
3.85324e-12
0
8.96134e-12
8.83528e-12
-9.00737e-12
-8.76299e-12
-6.4288e-13
-1.85237e-13
-6.41815e-13
4.56197e-13
-7.76681e-12
-8.81131e-12
-1.4921e-13
1.64094e-13
-4.54451e-13
4.39411e-13
-1.32194e-11
-9.3876e-12
1.33769e-11
9.08828e-12
-2.29462e-13
-2.98422e-13
1.49189e-13
1.1382e-11
8.79751e-12
-1.15629e-11
-8.45631e-12
-6.32115e-14
-1.48531e-13
1.49571e-13
-1.5058e-13
0
5.97012e-12
-1.61769e-11
5.65144e-12
-2.19113e-11
2.24744e-11
-5.92946e-13
-4.15143e-13
5.19459e-13
1.77182e-13
-7.16351e-12
1.10337e-11
6.78742e-12
8.76214e-13
-6.43289e-13
1.95017e-13
-3.74612e-13
8.27587e-13
2.12733e-14
5.95996e-13
4.3238e-12
-6.40608e-12
2.32915e-11
3.66571e-11
-1.14838e-07
-1.00764e-08
2.29964e-09
2.99582e-08
6.08395e-09
-4.29465e-13
-3.27741e-12
-2.98048e-13
3.61196e-13
8.36459e-11
-1.57455e-07
1.61143e-08
-3.65762e-09
-4.42514e-08
8.38286e-09
-2.64819e-11
0
2.98074e-13
1.13052e-13
9.11638e-11
-1.61639e-07
1.71073e-08
-3.89435e-09
-4.63588e-08
8.53975e-09
2.5927e-13
-3.57653e-12
-4.02345e-12
7.84932e-12
1.08506e-10
-1.3816e-07
1.2582e-08
-2.81067e-09
-3.59823e-08
8.06308e-09
-9.55369e-14
0
-3.43063e-12
5.96544e-12
-6.07225e-12
-2.25899e-09
-4.16975e-10
8.79139e-11
1.18446e-09
-2.81895e-10
2.60334e-11
-4.47381e-13
1.49293e-13
1.70057e-11
-1.63997e-11
-2.56194e-11
2.46336e-11
1.48395e-11
-1.43569e-11
-7.22203e-14
-5.5968e-13
7.31439e-12
-1.04429e-11
1.22282e-11
1.03717e-11
-1.26273e-11
4.51807e-13
-6.65647e-13
-4.1339e-14
3.07857e-13
1.46301e-13
0
-9.22865e-12
-7.92628e-12
-7.29679e-14
-1.51573e-12
-1.30153e-11
-1.41353e-13
1.62972e-11
-1.47073e-14
-3.3594e-12
-1.48823e-13
1.48615e-13
4.46779e-14
-7.99336e-12
-2.62967e-11
-7.72217e-12
2.73354e-12
1.70679e-11
2.85342e-11
-9.24011e-13
-7.72687e-12
2.95267e-13
1.38581e-11
-2.48704e-09
-1.14789e-07
-5.22914e-10
9.83183e-10
6.13331e-09
2.78021e-07
7.77661e-08
4.42878e-12
-4.40068e-12
6.58297e-09
2.72526e-05
-0.706161
-0.00430094
0.000271891
0.0115978
0.553385
1.24575e-06
-1.29083e-11
1.46495e-13
6.37727e-09
2.809e-05
-1.08015
-0.0146229
0.000867284
0.0414323
0.721048
1.08183e-06
-1.75785e-12
1.06952e-11
6.35234e-09
2.8281e-05
-1.0856
-0.0152437
0.000910572
0.0425448
0.723711
1.07327e-06
4.24828e-12
4.25529e-12
6.48182e-09
2.7896e-05
-1.07221
-0.0138931
0.000818464
0.0398709
0.715941
1.11206e-06
2.34721e-12
-1.16677e-11
4.23786e-09
2.8243e-05
0.116018
-0.0055411
-0.00629154
-0.00688556
-0.118951
5.0118e-07
3.98673e-12
1.48658e-13
4.93963e-13
4.37675e-09
9.14291e-09
2.70065e-10
-6.92588e-11
-1.45158e-09
-1.30156e-08
-2.74567e-11
3.12142e-12
-5.95366e-13
1.01604e-11
3.9642e-13
-1.01726e-12
1.68293e-13
-9.36908e-12
-7.04681e-14
1.13025e-11
3.15532e-13
-1.11638e-11
-7.43326e-13
-2.85815e-13
2.65195e-13
8.57608e-14
2.35004e-13
5.17006e-14
-9.52791e-12
4.14178e-13
9.49272e-12
0
1.82521e-11
1.40184e-11
0
6.18184e-10
3.56424e-10
-5.94636e-11
-9.20753e-10
2.68173e-11
1.75235e-11
-3.85748e-12
1.63088e-11
-1.90436e-10
-1.45183e-06
0.0165078
0.000430867
9.9499e-05
-0.000696042
0.000726922
4.93064e-07
-1.79242e-11
-7.69266e-12
-4.50131e-08
-0.592371
0.000331846
6.241e-12
-1.22887e-11
-1.2926e-07
-0.720347
0.000447021
1.48899e-11
-1.37365e-11
-1.23394e-07
-0.721678
0.000447961
3.2961e-11
-1.45219e-11
-1.39753e-07
-0.718158
0.000443269
8.70894e-12
3.96893e-12
2.45415e-09
0.0181248
-2.95642e-05
7.20019e-12
-3.41376e-12
1.30212e-14
1.27956e-08
5.70952e-06
4.58256e-07
-9.52792e-08
-2.26084e-06
1.08018e-06
2.34352e-10
-3.11667e-12
-1.4865e-13
5.93841e-13
1.26818e-13
-9.51767e-12
6.79021e-14
2.23864e-11
-1.64107e-13
-2.35356e-12
1.50266e-13
-1.17448e-11
2.23059e-12
1.20721e-15
-2.10749e-12
-1.1331e-13
1.21425e-13
-1.08488e-13
3.55225e-14
-5.0345e-13
2.02723e-13
4.46039e-13
8.31828e-12
4.14207e-11
-2.13772e-11
4.52238e-10
4.85608e-10
-7.13751e-11
-1.25678e-09
7.09259e-11
2.60414e-12
-3.71279e-12
-3.97001e-12
-2.13947e-10
-1.52881e-06
0.0205267
0.00054666
7.80066e-05
-0.00102269
0.000814068
5.11063e-07
1.66137e-11
-6.81684e-12
-2.67969e-08
-0.608945
0.000341113
-4.35073e-12
-1.44331e-11
-1.38306e-07
-0.751912
0.000501013
1.3277e-11
-7.79507e-12
-1.30689e-07
-0.75378
0.000502731
8.94771e-12
-1.10294e-11
-1.36275e-07
-0.746611
0.000492925
2.26248e-11
-1.26518e-11
1.23711e-09
-0.0143239
-3.13066e-05
-3.08792e-12
-1.14392e-11
-1.14692e-11
1.34179e-08
6.67358e-06
6.51681e-07
-1.42792e-07
-3.71078e-06
6.33102e-07
1.95059e-10
7.42798e-12
1.48683e-13
8.06744e-14
1.02379e-11
7.29318e-14
-1.04149e-11
-6.25175e-14
1.55131e-13
1.03624e-11
-1.41072e-13
-1.0261e-11
-1.63671e-12
-7.11228e-13
6.51357e-13
-6.24621e-13
1.07975e-13
2.11255e-13
9.92527e-14
-1.16608e-13
1.73269e-13
-1.48767e-13
2.52748e-12
-3.34119e-11
3.09491e-11
3.29338e-10
5.00345e-10
-7.72496e-11
-1.25461e-09
6.74513e-11
-2.87982e-13
1.32288e-11
1.8546e-11
-2.03111e-10
-1.53257e-06
0.0206141
0.000537728
5.38493e-05
-0.0010612
0.000818966
5.13424e-07
-3.973e-12
-1.00165e-11
-2.13111e-08
-0.609424
0.000341693
4.49849e-12
-1.18417e-11
-1.30104e-07
-0.753225
0.000502906
2.8876e-13
7.94292e-12
-1.20944e-07
-0.755313
0.000504707
1.05399e-11
-8.7122e-13
-1.47411e-07
-0.750433
0.000494606
3.7731e-12
0
3.71322e-09
0.0191969
-3.14427e-05
2.34e-11
-5.50153e-12
2.12533e-11
1.33412e-08
6.75231e-06
6.77329e-07
-1.21497e-07
-2.78078e-06
1.25169e-06
2.3447e-10
6.83973e-12
-1.205e-11
-2.43285e-13
2.62493e-12
9.96602e-12
1.96732e-11
-1.024e-11
-1.34616e-11
1.82242e-13
3.38371e-12
-1.48797e-13
-1.81608e-11
1.42954e-13
1.79951e-11
1.94829e-13
1.07857e-11
-9.33545e-12
-1.02772e-11
9.08185e-12
5.83448e-13
5.9536e-13
2.975e-13
-2.24436e-12
4.46686e-12
3.1577e-10
4.985e-10
-8.94092e-11
-1.22066e-09
4.66317e-11
6.24837e-14
4.46152e-13
-3.24068e-12
-2.20434e-10
-1.527e-06
0.0206294
0.000536606
5.05807e-05
-0.00106581
0.000818826
5.11804e-07
4.7114e-12
-6.97477e-12
-1.01839e-07
0.0794444
0.000341854
1.71341e-11
-9.39408e-12
-1.30654e-07
-0.752348
0.000503088
1.15583e-11
-8.95998e-12
-1.2049e-07
-0.755427
0.000504891
8.52442e-12
9.44393e-12
-1.46458e-07
-0.75071
0.000494771
7.69618e-12
4.41988e-12
3.70756e-09
0.0192113
-3.14603e-05
3.82855e-12
-8.03367e-12
-2.16813e-11
1.32671e-08
6.75722e-06
6.77572e-07
-1.31998e-07
-2.99905e-06
1.21815e-06
2.14112e-10
2.97536e-13
0
-9.64057e-12
1.21054e-13
2.01107e-11
-2.04582e-14
-1.02944e-11
-1.96424e-13
-3.3366e-14
-1.52541e-15
0
2.38246e-12
-3.44872e-13
-3.05162e-12
-5.08714e-12
-2.52031e-13
4.92232e-12
-1.56811e-13
-1.70223e-13
8.56582e-13
1.48897e-13
-6.99315e-12
7.59382e-14
4.16989e-12
4.05602e-10
4.8626e-10
-7.35621e-11
-1.29294e-09
6.2654e-11
4.68219e-11
-2.97553e-12
-9.13755e-12
4.22445e-11
-1.52797e-06
0.0205833
0.000534933
5.85839e-05
-0.00104795
0.000816589
5.09653e-07
-3.83041e-12
-4.21831e-12
-9.67312e-08
0.141227
0.000341943
3.92514e-12
-1.27371e-11
-1.37402e-07
-0.751848
0.0005019
1.14314e-11
-2.08423e-11
-1.27491e-07
-0.754814
0.00050363
2.32974e-11
-9.89129e-12
-1.5185e-07
-0.750186
0.000493782
6.68761e-12
-2.65353e-12
3.72427e-09
0.0192059
-3.14178e-05
-7.80914e-12
3.42304e-12
1.73365e-14
1.32372e-08
6.68876e-06
6.52381e-07
-1.41942e-07
-3.71056e-06
6.30885e-07
2.3375e-10
-1.48823e-13
-1.48892e-13
-2.8038e-14
6.45066e-13
-5.22977e-12
-5.83746e-13
4.80443e-12
-2.24092e-13
2.08381e-13
-4.73197e-13
-2.9785e-13
-1.48928e-13
-5.27674e-14
-1.09437e-11
-1.11253e-13
1.08875e-11
1.01253e-13
-1.62267e-14
1.23909e-11
-1.44809e-13
-1.23619e-11
1.30955e-11
1.64607e-11
2.68029e-12
-2.3134e-10
2.20058e-11
-1.19393e-11
-1.0147e-10
2.61526e-11
1.83438e-11
-1.48825e-13
1.56313e-11
-1.90988e-10
-1.51539e-06
0.0174764
0.000417597
5.53928e-05
-0.000786136
0.000778496
5.00077e-07
1.60718e-11
1.66143e-11
9.67714e-09
-0.598882
0.000286769
9.32485e-12
1.7421e-12
1.07895e-09
-0.731154
0.000331107
1.4514e-13
1.8003e-11
8.96681e-09
-0.732792
0.00033134
-2.90286e-13
-2.76989e-12
-1.84121e-08
-0.729233
0.000333009
3.05991e-12
-1.2983e-11
2.9651e-09
0.0185112
-2.8192e-05
3.09686e-12
-4.91265e-12
-7.1807e-13
1.18058e-08
4.77353e-06
3.50151e-07
-6.30959e-08
-1.46579e-06
9.8058e-07
2.31336e-10
4.466e-13
-1.4893e-13
2.42374e-12
1.21116e-11
-2.06336e-12
-1.21203e-11
-1.41721e-11
-1.22791e-11
1.42444e-11
1.25469e-11
1.48962e-13
-1.48929e-13
-1.83162e-13
9.49709e-12
-6.28023e-13
-8.39735e-13
5.93003e-13
-9.29583e-12
4.83098e-13
9.46393e-13
-4.46866e-13
1.48808e-13
-6.10581e-13
-1.96462e-11
1.79423e-11
-1.03654e-13
2.94465e-13
6.29562e-13
-2.53329e-11
4.10824e-11
-7.73962e-12
-3.8341e-12
-2.27238e-11
-4.88694e-08
5.98354e-07
1.65926e-08
-3.0771e-09
-3.25916e-08
-3.04009e-06
8.25077e-09
-2.80161e-12
1.45742e-13
9.01883e-11
-7.95458e-05
-2.66542e-07
2.9141e-13
-3.33958e-12
1.22608e-10
-8.20613e-05
-2.79236e-07
1.11761e-11
1.45216e-13
8.88711e-11
-7.8411e-05
-2.80116e-07
1.4515e-13
1.3268e-11
1.17919e-10
-8.20049e-05
-2.76288e-07
-1.90893e-11
0
-8.0665e-11
-7.21104e-05
-4.9379e-08
4.71936e-12
-3.42441e-12
4.06047e-12
1.32697e-10
-2.56422e-09
-2.00759e-10
4.93554e-11
6.87863e-10
1.8111e-10
-4.70872e-12
-1.48875e-13
4.46835e-13
-5.603e-13
1.09345e-11
-7.55339e-12
-1.13184e-11
8.52864e-12
-6.37729e-14
-1.9575e-14
6.98085e-14
-1.48971e-13
-4.46746e-12
-1.26697e-11
-8.64417e-12
3.30687e-13
3.88572e-13
-1.04439e-12
-6.28807e-13
1.20035e-13
5.87845e-14
0
-2.15743e-11
-1.43373e-11
1.81672e-11
-1.78086e-11
1.77186e-11
-1.80579e-11
-1.8281e-11
1.88276e-11
5.66664e-13
-2.52995e-12
-1.47353e-13
-2.11196e-11
-2.25011e-11
-4.57148e-11
1.11409e-12
-5.02375e-11
-1.18096e-12
3.14525e-13
3.17392e-11
-1.78287e-11
4.36265e-12
2.82475e-11
-3.67884e-11
-9.43848e-13
0
5.79035e-13
3.00052e-13
-1.70977e-11
-3.6573e-13
0
-4.19845e-12
8.53485e-12
1.01271e-13
3.69299e-11
-6.65751e-12
6.40096e-12
4.17411e-12
-5.71305e-12
-3.64231e-13
-1.16339e-11
1.41547e-11
1.31221e-11
1.43545e-13
8.04253e-13
-2.01919e-11
1.48876e-13
-4.37038e-13
7.19415e-13
-1.68883e-11
1.67162e-11
-1.92838e-11
1.97494e-11
-2.195e-11
2.31554e-11
8.03807e-12
-1.05746e-11
-1.37393e-11
2.36447e-12
1.4017e-11
8.59146e-12
4.69297e-14
-1.25319e-11
-8.89862e-12
1.25679e-11
9.23539e-12
-1.13166e-11
8.98068e-12
1.13117e-11
-1.97572e-11
-2.4485e-13
2.08569e-12
3.87576e-13
8.5635e-12
-1.62026e-13
2.97875e-13
3.12436e-12
-2.61263e-11
1.99466e-11
1.99273e-12
-1.66345e-12
-2.51912e-11
2.47482e-11
-1.17674e-12
4.08618e-13
-1.8303e-11
1.4729e-13
3.44441e-13
-2.60682e-13
-5.79757e-13
-5.8972e-13
7.48187e-13
1.26364e-12
3.52275e-11
-6.62758e-12
-2.09147e-11
-1.45264e-13
-2.82047e-11
3.97393e-11
3.12466e-12
-1.14749e-11
-1.8646e-11
-1.9154e-11
-4.10336e-14
-2.95885e-11
4.33585e-13
1.44554e-13
-2.12748e-11
2.84009e-11
-1.32075e-12
-2.31262e-12
-1.36584e-11
-2.45989e-11
3.14059e-11
-1.01323e-11
-1.6855e-11
1.62091e-12
-1.64069e-11
3.73007e-11
-3.70496e-11
1.47352e-13
1.32474e-11
9.72494e-12
1.11255e-12
6.73883e-12
-6.42506e-14
-2.31915e-11
-1.79129e-12
1.75787e-12
2.2661e-11
-1.44373e-11
2.97845e-13
3.02649e-13
7.88539e-13
3.78181e-13
-1.31761e-12
-6.81512e-13
1.06583e-11
-1.43881e-15
-1.07196e-11
8.93643e-13
-5.9558e-13
1.70599e-13
3.24885e-13
-1.07423e-13
-1.36405e-13
8.63064e-12
-9.34096e-12
-8.6707e-12
9.64549e-12
0
1.4877e-13
-2.38324e-14
5.95492e-13
1.94462e-11
-4.29002e-11
2.30211e-11
3.24877e-13
0
2.90412e-13
-7.43998e-13
-4.86007e-12
-6.91274e-13
-1.44725e-11
5.05481e-11
4.24724e-11
-5.84841e-13
-4.77463e-11
1.92185e-12
6.22882e-13
1.47274e-13
1.52496e-11
1.12823e-11
-1.63049e-11
-2.68951e-12
-2.29457e-11
-3.61255e-12
-9.70097e-13
4.59434e-13
9.45235e-12
-1.2571e-11
-7.22565e-13
6.54879e-13
3.25141e-11
5.8731e-13
-1.30052e-12
8.7167e-13
-8.30594e-12
-1.64267e-11
2.63307e-11
-3.19567e-12
1.87111e-11
2.8592e-11
-6.06297e-11
1.13444e-13
6.33471e-12
0
-7.84729e-15
-3.02036e-13
1.66914e-11
1.17859e-11
-2.87511e-11
1.71982e-11
-1.75706e-11
-5.89782e-13
-1.97944e-11
-1.4891e-13
1.37141e-11
1.3274e-11
-2.72371e-11
-1.28017e-11
1.30044e-11
-2.05384e-13
3.127e-13
-1.04365e-12
-1.04252e-12
5.95574e-13
7.29793e-13
-2.14125e-13
2.61702e-13
-1.27068e-15
-6.33886e-14
-5.33465e-14
-8.19899e-12
-6.32494e-12
2.38292e-12
4.16525e-12
-1.8567e-11
1.85003e-11
-4.40126e-13
-4.3602e-13
2.57905e-14
2.44973e-13
2.94195e-13
2.61479e-11
-4.01763e-12
-1.47291e-12
-3.18127e-13
-1.37334e-11
6.20322e-11
-1.05836e-12
-9.70832e-13
1.29502e-12
3.33743e-11
-1.86045e-11
-5.74428e-12
-1.91775e-11
7.38415e-12
-3.13107e-11
1.45346e-13
-4.64856e-12
-1.18539e-11
-1.1248e-11
1.0055e-12
-7.69175e-12
3.18016e-12
-4.33713e-13
2.11023e-14
3.86948e-12
4.77073e-12
-5.7823e-13
0
-7.48264e-15
-5.39394e-11
-1.19621e-11
5.8113e-12
-1.47359e-13
-7.15102e-12
1.89942e-11
-9.07513e-12
-1.03121e-12
4.46455e-13
2.74239e-13
1.75227e-11
6.97489e-12
-2.47347e-11
-2.84263e-13
-3.97191e-13
1.80947e-12
2.06696e-13
2.67893e-12
1.4891e-13
1.42527e-13
-3.07798e-14
9.17832e-14
-1.56333e-13
8.90724e-14
-2.09959e-14
1.60813e-13
-1.25056e-11
-1.23616e-11
0
2.19879e-13
-3.42015e-13
1.29343e-14
2.48116e-13
-6.76029e-14
6.64843e-14
8.05989e-15
5.39185e-14
1.48946e-13
-1.48766e-13
3.70555e-13
-2.19739e-13
5.22132e-13
2.15085e-14
4.14117e-13
1.18038e-12
-8.82347e-13
3.49602e-14
-3.12507e-12
1.47355e-13
-1.00572e-11
5.10103e-13
2.31767e-12
3.01254e-12
-5.48732e-11
-3.73979e-11
1.32278e-12
1.08925e-11
-2.65247e-12
2.13847e-11
3.69412e-12
6.11217e-13
5.80728e-13
-1.42549e-11
4.05485e-12
-2.00172e-11
8.14883e-12
-2.77981e-11
4.92352e-12
-2.89652e-13
2.39863e-11
-3.19289e-11
-2.60179e-11
-7.2406e-13
-4.65629e-12
1.48918e-11
-2.53204e-11
-1.7486e-12
-3.05469e-12
1.82792e-11
2.69712e-11
-1.46673e-11
-2.51555e-11
3.09484e-12
-1.63712e-12
-9.10267e-12
9.96209e-12
-2.83588e-13
3.78446e-13
-4.13685e-14
2.39015e-11
-7.49759e-13
-2.83651e-12
-6.40015e-12
-1.48925e-13
-2.47257e-14
3.81327e-13
-9.5273e-12
-1.03467e-11
1.00121e-11
9.63807e-12
-7.15477e-13
-1.2439e-11
-1.29588e-11
-2.97865e-13
1.57865e-13
2.77733e-13
-1.47819e-13
-1.50453e-13
-1.68353e-13
9.31085e-14
1.16091e-11
-1.64179e-13
-1.1322e-11
1.75597e-11
-4.61043e-12
1.84453e-11
6.07701e-13
3.0654e-13
-5.27532e-13
-1.29828e-13
7.313e-14
4.39321e-13
7.44283e-13
3.6868e-12
3.93303e-12
-2.40379e-13
1.14453e-13
-7.10165e-13
1.79486e-12
8.04244e-11
3.35606e-11
0
-5.89987e-13
-1.31198e-12
-2.87486e-11
5.91338e-11
1.99437e-12
0
1.45226e-13
-5.14732e-12
-5.62702e-11
-3.68492e-13
3.19485e-12
4.35701e-13
1.22181e-12
-5.45248e-12
-2.95315e-13
4.35664e-13
0
-1.97592e-11
2.76749e-11
5.35901e-12
1.45769e-13
0
-2.41344e-13
3.32402e-11
-8.25451e-12
1.47494e-13
-3.8709e-12
-8.06261e-13
-6.52957e-12
-4.72835e-12
1.79989e-11
-1.8205e-11
-5.14741e-13
2.45851e-11
-3.36704e-11
1.29529e-11
1.14699e-11
1.01028e-13
-1.99478e-11
2.56237e-15
8.33931e-12
-1.92863e-13
8.20775e-12
-7.57558e-14
-8.5906e-12
-2.97966e-13
0
-5.02902e-13
6.68248e-14
1.05613e-13
8.91801e-14
5.66662e-16
-4.85592e-12
-4.32158e-15
6.13602e-13
-4.46957e-12
-1.30982e-11
-1.25832e-11
1.66788e-11
-1.7489e-11
2.82895e-11
-2.76408e-11
-2.70177e-13
-5.89101e-13
5.08073e-13
4.01958e-12
2.9496e-12
-2.26264e-13
5.25379e-13
-6.93369e-14
-4.59653e-13
3.11705e-13
3.24139e-11
2.0181e-13
-1.80989e-11
3.6869e-12
-1.5587e-11
-3.96507e-11
1.23664e-11
7.29413e-14
1.16523e-12
4.06154e-12
-6.01178e-12
1.53419e-11
2.2112e-13
5.94689e-12
1.45061e-13
2.3282e-11
-2.59523e-11
2.30354e-11
1.91464e-11
7.28426e-13
6.60427e-13
2.7973e-11
1.88696e-11
-8.7393e-12
-1.32762e-12
-1.36589e-11
1.20533e-11
-1.46328e-12
-5.89946e-13
-6.84966e-12
-4.41195e-13
-7.16464e-13
-2.02713e-11
2.08342e-11
-9.78273e-13
2.01112e-12
-1.95984e-11
-7.46068e-12
5.50965e-12
-1.04285e-11
-8.34192e-12
1.07755e-11
8.03529e-12
-8.21525e-14
2.6388e-13
1.89452e-13
1.22413e-13
2.1166e-13
-4.47009e-13
0
6.68826e-13
1.57163e-13
-5.29545e-13
4.08065e-13
-8.67736e-12
8.22709e-12
8.61308e-12
-8.80766e-12
1.48972e-13
-2.50028e-11
-3.41697e-12
-3.75371e-11
-9.54722e-12
2.83925e-11
-2.31964e-11
2.34427e-11
-2.27887e-13
-1.51622e-11
1.33953e-12
0
3.87485e-13
-1.88558e-12
1.73739e-12
1.35472e-13
-3.55266e-11
-2.91595e-11
3.55217e-11
-1.93446e-13
5.89419e-13
3.05343e-12
-1.95948e-11
-1.07965e-11
3.28234e-11
-7.70429e-12
-3.03822e-12
9.38995e-13
-4.7128e-11
-2.43616e-11
4.19529e-12
1.38897e-11
1.3584e-11
1.89409e-12
-7.47571e-12
6.51013e-12
-3.34473e-12
6.1792e-12
-2.26021e-11
-6.63055e-12
-6.83266e-12
9.28733e-12
1.81202e-11
4.027e-12
-7.44491e-12
-2.29916e-11
-6.69932e-12
1.73612e-11
1.08708e-11
-2.06167e-12
-7.08536e-12
-1.87206e-11
2.30766e-11
-4.68221e-12
-2.0666e-11
-1.63777e-11
1.48969e-13
-1.72528e-13
-1.26748e-11
-2.92286e-13
1.26781e-11
1.41836e-13
-8.57412e-14
-2.56156e-14
6.53175e-14
1.48999e-13
0
9.62333e-12
-8.97563e-12
-9.53864e-12
3.40105e-13
4.80042e-15
8.69808e-12
-5.06614e-14
-2.93892e-14
1.48977e-13
1.4883e-12
-8.95012e-14
-8.93349e-13
9.45646e-13
-2.33459e-13
-1.56146e-13
-4.00905e-13
1.70012e-11
-1.72894e-11
5.95317e-13
2.79955e-12
-6.89329e-12
5.29236e-11
1.1597e-12
5.89797e-13
2.42761e-12
-3.56706e-13
3.72428e-11
6.77069e-12
2.09193e-11
-3.92341e-12
2.1789e-13
2.29437e-11
2.12958e-11
-5.81127e-13
4.04787e-12
-2.31802e-11
3.59108e-11
5.34754e-12
2.89111e-12
-3.03611e-12
-1.31215e-12
3.28291e-12
8.07322e-12
-3.61415e-12
1.87505e-11
1.55186e-11
1.72444e-11
2.28293e-11
-2.20873e-11
-2.94798e-13
5.89571e-12
-1.06471e-11
1.06118e-11
-1.17893e-11
2.97739e-13
8.79863e-14
2.59809e-11
-2.54914e-11
-2.23276e-11
2.21474e-11
-1.50447e-13
0
-1.74783e-13
3.42461e-12
-7.44865e-13
1.08861e-13
1.0632e-12
1.24105e-11
-1.0952e-12
-7.21964e-12
1.3056e-11
-5.37142e-12
-1.26895e-11
1.49011e-13
9.68641e-12
9.22274e-12
-6.63322e-13
9.93827e-14
1.02999e-11
1.10753e-13
-1.02483e-11
-5.75901e-16
-2.60002e-13
0
1.42932e-11
-4.53045e-12
1.9069e-11
9.02826e-14
2.10233e-13
-8.28259e-13
6.49663e-13
0
-1.82396e-11
1.80138e-11
2.94799e-13
-3.6224e-11
5.05215e-11
5.81139e-13
5.72187e-11
3.99026e-11
-5.09798e-11
-3.105e-13
-2.40755e-11
3.24221e-12
-1.30843e-11
-1.57945e-11
5.17783e-12
8.21341e-12
8.72116e-13
1.44649e-13
-2.31363e-13
1.15297e-12
7.39931e-12
7.37663e-12
2.89316e-13
-5.88195e-14
-1.09866e-11
6.23863e-12
1.09944e-11
4.07177e-12
-1.1006e-12
4.19189e-12
1.87466e-11
-3.19938e-12
-4.42325e-13
-8.84308e-13
-2.87776e-13
-2.00626e-11
2.21183e-11
4.02045e-12
2.46747e-11
-3.59497e-11
1.03977e-11
-2.81683e-11
8.62053e-12
-1.72114e-12
2.10823e-11
1.79714e-11
1.95135e-11
-1.49017e-13
-4.47477e-12
5.07762e-13
1.24378e-11
-1.21113e-13
-8.17506e-12
-1.11146e-13
-9.65755e-12
-4.78976e-15
9.68929e-12
5.0706e-12
7.13149e-15
-5.70466e-12
-4.80976e-14
4.05518e-13
2.10812e-13
1.11339e-13
-1.80708e-13
-1.02084e-11
-1.02901e-11
-2.68241e-12
3.01084e-13
2.97993e-13
4.15187e-13
-8.73652e-14
1.63019e-11
-1.71015e-11
2.24728e-11
-2.29945e-11
-2.9801e-12
-1.1515e-11
1.01351e-11
1.19756e-12
-3.89297e-11
-2.35867e-12
-1.36325e-12
-3.64843e-11
3.86552e-13
6.52335e-12
3.68979e-12
-1.4574e-13
3.6894e-14
-2.27097e-12
-5.01096e-12
0
-1.05902e-11
-2.36906e-11
2.62926e-13
7.39e-12
1.204e-11
0
1.8535e-11
3.33129e-13
-7.40272e-12
2.32144e-12
1.79285e-11
1.76263e-11
8.74727e-13
6.92964e-12
-1.38505e-11
-1.47649e-13
-2.41051e-11
4.67452e-11
0
2.51066e-12
-1.93736e-12
-9.21596e-12
-1.87235e-11
1.80221e-11
-2.31996e-12
2.37029e-11
-2.11661e-11
2.92614e-13
4.28896e-13
2.87748e-11
0
-8.86842e-12
-7.40868e-14
8.91618e-12
-1.44482e-13
7.97477e-14
4.72083e-13
-1.23377e-13
-1.74425e-13
4.47521e-13
0
2.22152e-13
7.64136e-14
-2.12287e-13
8.23454e-14
4.35971e-14
-9.06657e-14
-7.49213e-14
-1.30157e-11
-1.29854e-11
5.97001e-12
-5.10537e-13
5.96371e-13
2.11997e-14
4.61063e-13
-2.96224e-13
-9.70888e-13
5.57847e-13
-2.30423e-11
-8.05874e-12
4.44584e-13
4.32358e-12
-4.7236e-11
4.63718e-12
2.39085e-13
2.08754e-12
-1.13179e-12
-4.98737e-11
-3.61086e-11
0
1.57089e-11
-1.38966e-11
3.15525e-11
-1.46541e-11
0
-1.00999e-11
2.25616e-12
-3.21169e-12
7.23165e-12
-5.56163e-12
5.85524e-13
6.70592e-13
1.98948e-11
1.10462e-11
-2.92749e-12
1.1746e-12
2.26877e-11
-3.02741e-11
1.61577e-11
-2.93647e-12
-3.85335e-12
-4.42604e-13
2.15232e-11
-2.48237e-11
2.96457e-12
1.68644e-11
-5.49463e-12
-4.23676e-12
2.18483e-11
1.10562e-14
3.03353e-13
1.83104e-13
-8.76535e-13
1.05138e-12
-4.03123e-12
-8.50661e-12
-8.46143e-12
1.02483e-11
2.4568e-13
-1.03135e-11
-4.23844e-14
2.97964e-13
1.06185e-11
-4.03174e-13
-1.05998e-11
-2.98453e-13
9.35708e-12
2.05146e-13
-8.81756e-12
-9.1796e-15
-1.24938e-11
-1.83775e-13
1.21648e-11
3.87843e-13
0
1.49299e-13
7.02837e-13
-5.97851e-13
9.68462e-14
-2.09256e-13
1.29259e-13
-2.74235e-13
5.24621e-13
2.50578e-12
-3.58266e-12
2.67881e-12
-5.64087e-12
-2.87016e-11
4.96809e-13
-5.36851e-13
-3.8939e-13
-6.72549e-13
-4.51197e-13
6.44422e-12
1.19037e-11
9.04237e-12
2.78209e-11
-6.52032e-11
8.67852e-12
2.96408e-13
2.51758e-12
4.31406e-13
-6.13735e-12
5.01421e-12
-7.40325e-12
2.07336e-11
1.33096e-11
-1.49836e-12
-5.58644e-12
1.65841e-11
5.92985e-12
-9.86123e-13
2.54343e-12
7.16388e-12
1.03756e-12
-5.20894e-12
1.25077e-11
2.90319e-13
-1.33605e-12
-8.92995e-13
1.5973e-11
1.59727e-11
-2.2254e-13
-1.30889e-11
6.0123e-12
-1.79429e-13
-1.74205e-11
1.8963e-11
2.50237e-14
-1.41859e-11
0
-9.67467e-12
-1.15153e-13
9.71207e-12
1.46716e-13
3.87349e-14
1.42612e-13
5.37528e-13
1.27568e-14
-7.46162e-13
-7.5932e-12
-3.81342e-12
1.66564e-11
1.22888e-11
3.00837e-14
5.43971e-13
1.08566e-11
-4.56472e-13
-1.10747e-11
1.48867e-13
-7.29492e-12
3.2786e-11
-4.07159e-11
4.11923e-11
-2.47455e-11
1.73614e-11
-1.72753e-11
6.35078e-13
8.13282e-15
-1.50332e-11
-1.48607e-13
-2.62375e-13
0
-1.17004e-11
1.36004e-11
1.16115e-11
8.0936e-12
-3.34159e-11
-2.61267e-11
1.51546e-11
-1.48355e-13
-1.75875e-11
3.50658e-12
2.24873e-11
-4.6427e-11
2.74147e-11
-4.72328e-12
2.85681e-12
3.70202e-13
3.41152e-12
-5.93236e-13
4.92823e-12
5.3288e-11
6.59084e-12
-2.05502e-13
1.86368e-11
-9.11147e-13
-2.26112e-11
2.53762e-11
1.60147e-11
-2.66957e-12
-2.18533e-11
2.97003e-11
-6.50124e-12
2.90125e-13
-8.1635e-13
3.03387e-13
-4.17559e-11
-9.87897e-12
0
-4.45072e-13
-2.87842e-13
-9.81591e-12
-8.48335e-12
-2.50974e-12
2.32471e-11
-2.02106e-11
2.65984e-11
-2.37623e-11
4.00515e-12
-6.09247e-12
-1.64729e-12
-5.0997e-13
-1.70753e-12
4.35992e-11
8.60558e-13
-2.34252e-12
2.16982e-12
5.55164e-12
2.08036e-12
-5.95421e-13
2.15808e-13
-2.37737e-11
2.44434e-11
-1.61566e-12
1.37846e-12
-2.28432e-11
2.31693e-11
1.04055e-13
-2.53101e-12
2.97691e-13
2.53602e-13
-3.6688e-14
8.8519e-12
-4.77943e-13
1.77958e-13
4.55347e-13
-8.85031e-12
-3.54689e-13
0
-1.48471e-13
-3.00839e-12
-2.61576e-13
-4.26975e-13
-1.1628e-11
3.45905e-12
2.33585e-11
8.89309e-12
-1.25657e-12
1.48458e-12
1.06829e-11
-1.32587e-11
-1.1619e-11
1.30546e-11
6.91025e-13
-1.64893e-11
-7.15409e-12
1.68986e-11
-1.20316e-11
4.74737e-12
1.4817e-13
3.28669e-12
-5.47148e-12
-2.17327e-11
2.13133e-11
-1.02964e-11
1.03815e-11
4.52858e-13
6.20304e-12
-1.48147e-13
0
5.23722e-12
1.06707e-13
-6.75037e-12
6.79445e-12
1.83318e-11
-1.85161e-11
-1.89982e-13
-7.52251e-12
-1.03597e-11
-1.4798e-13
-2.95151e-13
-2.79026e-11
1.13902e-11
8.31001e-14
-4.14973e-12
1.41821e-13
-2.46919e-11
8.41009e-12
-2.95927e-13
1.13946e-11
1.81894e-11
-6.34098e-12
1.26451e-11
-1.17068e-11
-5.82914e-12
-7.63963e-14
2.35663e-11
-3.87295e-12
-1.05056e-11
1.19895e-11
-7.64466e-12
-1.56816e-11
-1.54794e-12
3.8151e-11
-6.72456e-12
-4.11687e-11
2.34759e-11
6.97051e-12
-1.48007e-13
-1.71951e-11
-1.42658e-11
-1.85264e-11
1.84183e-11
-4.59792e-13
-1.75014e-11
1.64365e-11
-3.59719e-13
-1.77118e-11
4.44704e-13
1.48374e-13
2.53735e-14
2.20005e-11
-4.79404e-13
-1.14149e-11
-3.91314e-12
-8.87061e-13
-1.31801e-11
1.25172e-11
1.39482e-11
1.12818e-11
8.42108e-12
-1.13545e-13
1.30625e-11
1.04674e-13
-1.01266e-11
-1.03593e-12
-1.20048e-11
2.57088e-12
1.35102e-11
-7.41011e-13
-1.16948e-12
-3.00264e-12
1.78083e-13
2.63688e-12
-2.23355e-14
9.77254e-14
4.48271e-13
7.24754e-13
-1.48196e-13
-1.4812e-13
1.14651e-13
-1.559e-14
8.5806e-14
5.17533e-14
-4.2929e-14
-3.5022e-14
-5.84965e-14
-3.46819e-14
-1.48112e-13
-5.18023e-12
-5.16508e-12
2.8239e-13
-2.12566e-13
1.18519e-11
-3.6051e-14
-2.06926e-11
1.939e-14
9.00587e-12
0
1.87862e-11
9.55707e-12
-1.23113e-11
-1.27881e-11
2.7613e-12
1.28176e-11
1.01713e-13
2.36539e-13
-9.34553e-14
-2.95839e-13
-1.30149e-11
8.39692e-14
1.30948e-11
4.91814e-13
-2.45817e-13
-6.34123e-13
-3.48117e-13
-1.17838e-11
3.88978e-13
1.16841e-11
4.4369e-13
-1.11251e-11
-4.75137e-13
1.14013e-11
-3.63609e-14
-8.22109e-12
8.52926e-15
8.1499e-12
-8.68004e-14
0
-1.47925e-13
-1.42894e-11
-1.52099e-13
1.35689e-11
-1.91074e-14
8.74996e-12
1.42979e-13
-8.35403e-12
-2.30682e-13
0
-9.17685e-12
-9.48375e-12
1.03892e-13
6.89077e-14
-4.16042e-14
-1.34341e-11
1.52366e-14
1.34078e-11
2.12843e-13
1.48019e-13
0
2.75106e-14
1.02385e-11
-2.20052e-13
-1.03588e-11
1.41649e-11
3.93344e-13
-1.41119e-11
1.9935e-13
1.48122e-13
0
-4.53928e-13
-2.02171e-14
3.32292e-13
-3.92087e-14
6.66444e-13
4.92232e-14
-5.47593e-13
1.68159e-14
0
1.48052e-13
8.89805e-12
2.79432e-14
-8.6399e-12
2.04837e-13
-8.5193e-14
-9.44057e-12
-3.85733e-13
8.92506e-12
1.48051e-13
0
-6.30946e-13
8.77563e-12
4.14945e-13
-8.56442e-12
5.15107e-12
-1.89216e-13
-5.28985e-12
-3.90788e-14
1.48001e-13
9.02436e-12
9.08223e-12
1.47607e-13
2.23692e-13
-3.00592e-13
-1.33824e-13
-8.28465e-12
-8.53462e-12
8.39514e-12
8.58051e-12
8.87364e-12
9.02478e-12
-1.12981e-11
-8.57229e-12
7.86706e-12
5.40019e-12
-8.30408e-12
3.37231e-12
1.18147e-11
1.47898e-13
-9.90768e-12
-1.01416e-11
9.01129e-12
2.14769e-11
1.61184e-11
-1.2304e-11
-1.68561e-11
5.9579e-13
1.91324e-12
7.3943e-13
1.47875e-13
-2.6848e-14
-3.57917e-14
1.68116e-13
5.88457e-13
-2.16885e-16
5.10677e-13
-2.85263e-13
-8.71413e-13
-1.47888e-13
-1.19793e-11
-9.05441e-12
1.20889e-11
8.83502e-12
-1.21313e-11
-1.20451e-11
1.22549e-11
3.03852e-12
-2.84512e-13
9.17008e-12
1.47939e-13
1.13065e-13
-1.30595e-14
4.25037e-13
-1.24291e-13
-6.37056e-13
-1.26213e-13
1.53061e-13
9.44927e-12
9.32077e-12
-1.16918e-11
-1.1211e-11
1.16579e-11
2.32567e-11
6.5971e-13
-1.24663e-11
-6.38023e-13
1.87735e-13
-5.10241e-14
0
1.48043e-13
-8.28235e-13
-2.95295e-13
1.09428e-12
-1.00061e-11
-3.52642e-13
-1.47249e-12
1.463e-11
1.13047e-11
-1.40648e-11
-9.32211e-12
-9.24315e-12
5.17132e-13
-4.35978e-13
-4.70612e-13
5.68416e-13
-3.45677e-13
-2.2272e-13
3.11062e-13
-1.47972e-13
-2.95886e-13
1.23513e-11
1.27384e-11
-4.8711e-13
-1.10468e-11
2.08312e-13
1.035e-11
9.29002e-12
3.51558e-14
-9.17264e-12
-1.03537e-12
9.13228e-12
1.69808e-12
-8.59861e-12
-5.6547e-13
8.69837e-12
2.06491e-11
1.38982e-15
-1.16447e-11
-1.47914e-13
8.87305e-13
1.17557e-12
1.44022e-13
-1.28185e-11
-1.34011e-11
1.28378e-11
1.34952e-11
-3.84096e-14
4.57076e-13
5.9157e-13
1.13862e-11
1.10587e-11
-3.86245e-13
-1.07554e-11
1.58914e-13
1.09912e-11
-1.01913e-11
9.10313e-12
1.32807e-11
-5.32385e-12
1.13861e-11
1.22187e-13
-1.13675e-11
2.51322e-14
1.06641e-13
-1.12642e-13
-2.33262e-13
1.77483e-13
8.84273e-12
8.72526e-12
0
9.2604e-12
-1.60437e-13
-1.00367e-11
1.49649e-13
-8.4705e-14
-3.49141e-14
1.19607e-11
-1.09081e-13
-1.13879e-11
-1.47907e-13
2.04518e-13
-9.37749e-14
-1.19148e-11
-1.1347e-12
1.20523e-11
3.70341e-13
-4.1586e-13
5.92434e-13
2.95836e-13
-1.47939e-13
-1.80239e-13
-5.65008e-14
2.81701e-13
-2.42233e-14
-8.4291e-14
1.16426e-15
-9.35124e-12
-1.47319e-13
9.17275e-12
2.95928e-13
-5.50371e-14
-3.86369e-13
-7.23966e-14
1.59585e-13
2.83285e-12
-6.90683e-15
-2.80041e-12
2.14659e-13
0
-8.06198e-12
-8.9262e-12
-6.3015e-13
1.00919e-12
-2.94397e-13
-9.08034e-13
2.11293e-13
-6.16031e-14
-8.47421e-14
-3.6957e-13
-7.38528e-14
-1.81912e-14
-3.02937e-13
9.8242e-12
-5.10181e-12
-1.01787e-11
5.01243e-12
4.64468e-13
2.36566e-13
2.2176e-13
-5.17546e-13
-9.48551e-14
-8.2235e-12
-1.86795e-14
-2.66921e-12
-9.26058e-12
1.1359e-11
9.28446e-12
1.97741e-13
2.21788e-13