/*--------------------------------*- C++ -*----------------------------------*\
  =========                 |
  \\      /  F ield         | OpenFOAM: The Open Source CFD Toolbox
   \\    /   O peration     | Website:  https://openfoam.org
    \\  /    A nd           | Version:  10
     \\/     M anipulation  |
\*---------------------------------------------------------------------------*/
FoamFile
{
    format      ascii;
    class       volScalarField;
    location    "0.5";
    object      gradTx;
}
// * * * * * * * * * * * * * * * * * * * * * * * * * * * * * * * * * * * * * //

dimensions      [0 -1 0 1 0 0 0];

internalField   nonuniform List<scalar> 
46825
(
1.49086e-13
-1.32471e-13
-1.11072e-11
-3.45649e-14
1.93796e-11
-7.13741e-13
-1.26347e-11
5.86224e-13
4.13953e-12
-4.47299e-13
2.98106e-13
1.32386e-13
1.7644e-13
1.03327e-12
9.19902e-14
-1.1225e-12
-1.16267e-11
2.70181e-13
1.24916e-11
2.98125e-13
-9.38099e-12
2.74853e-12
9.35566e-12
-1.21172e-11
-9.25547e-12
-9.99948e-14
-4.92741e-13
5.23359e-13
7.20227e-13
-1.48912e-13
-1.48691e-13
1.4107e-13
-1.05313e-11
-5.16261e-13
1.04686e-11
2.62733e-13
1.30819e-11
-3.35817e-13
-1.28691e-11
2.97386e-13
8.91303e-12
9.43765e-12
4.27276e-13
-3.76315e-13
1.52915e-13
-2.13229e-13
1.21688e-11
-1.63635e-13
-1.18667e-11
4.45643e-13
-9.06264e-12
-8.42179e-14
1.73908e-13
-8.90434e-12
1.0626e-11
4.39705e-15
-1.07727e-11
-1.25597e-13
-1.53433e-13
2.97125e-13
7.88305e-12
6.66643e-12
6.44649e-13
-7.66094e-12
-8.07327e-12
5.91091e-13
-9.15525e-13
8.15086e-14
3.76544e-13
2.97462e-13
-4.46889e-13
-1.42844e-13
8.16999e-12
-2.5741e-15
-8.30514e-12
2.53793e-13
-9.64485e-12
-4.38878e-14
9.98552e-12
0
1.491e-13
-8.42579e-12
-6.79366e-14
8.1668e-12
2.18935e-13
-2.51819e-13
6.50762e-13
3.18787e-13
-5.81075e-13
-1.49101e-13
1.49119e-13
-1.23762e-15
-9.05901e-13
-6.98666e-14
5.94183e-13
-1.82756e-13
-4.87199e-13
-3.49144e-14
5.29112e-13
1.49126e-13
-2.98394e-13
-8.98411e-14
1.62443e-13
4.11127e-13
4.73496e-15
-1.67543e-14
8.6621e-12
-3.29942e-13
4.38303e-13
8.95295e-12
0
-5.95427e-14
-1.13771e-11
8.78828e-12
1.13399e-11
-9.01259e-12
4.87635e-14
4.32502e-13
7.39383e-14
1.49332e-13
0
2.20695e-12
1.83345e-11
-1.8459e-11
8.90881e-13
9.00905e-14
-4.99388e-13
-3.23419e-11
5.49878e-12
-1.49297e-13
-2.98387e-13
-4.03728e-12
1.14907e-12
2.18166e-11
-5.58771e-12
-1.71419e-11
4.55001e-15
7.73356e-13
-2.24291e-13
0
4.47474e-13
3.88859e-12
-1.93687e-11
1.91352e-11
6.37836e-13
-2.21046e-11
2.26803e-11
-1.89675e-11
3.47726e-12
-1.04409e-12
-1.49173e-13
-2.80459e-12
5.83053e-12
-1.54263e-13
-5.47265e-13
2.12766e-13
-7.20012e-14
3.75483e-13
4.11329e-13
2.98332e-13
8.95413e-12
-2.84213e-12
-1.08465e-11
4.46094e-13
2.52339e-11
-2.52166e-11
-4.78995e-13
2.63395e-12
-7.47898e-13
0
0
3.81709e-12
-5.91444e-12
-1.62154e-12
2.05534e-12
-2.95934e-13
5.50666e-14
-4.62422e-15
-6.92302e-12
1.56805e-11
5.07825e-12
5.37253e-12
-1.9983e-14
-1.39816e-12
9.41342e-12
1.08981e-12
-1.91446e-11
-6.42848e-14
1.02247e-11
4.48082e-13
2.98441e-13
-5.36732e-14
-4.59298e-13
-3.27603e-13
-7.08003e-14
7.86759e-13
2.03454e-13
-2.15123e-13
-1.00118e-11
-9.55068e-12
-1.29772e-11
-1.27328e-12
6.3753e-13
-1.18498e-11
-7.30963e-13
1.46453e-11
4.12557e-14
-1.49048e-11
-8.88615e-14
1.49191e-13
1.6563e-11
1.6808e-11
-2.22343e-13
1.75822e-13
-2.44428e-13
-3.32432e-13
-3.35053e-13
1.81829e-11
-1.75744e-11
-1.49247e-13
-4.47221e-12
-4.56389e-12
7.60931e-13
-7.59153e-13
3.32955e-13
1.64674e-13
-8.98723e-13
-1.80063e-11
1.8134e-11
2.98189e-13
-2.08544e-11
-1.61077e-11
3.75165e-11
-1.14777e-07
-1.00943e-08
2.30272e-09
2.99514e-08
6.05488e-09
3.30237e-11
2.54739e-11
1.49007e-13
3.49648e-11
3.82367e-11
-1.57426e-07
1.61046e-08
-3.64894e-09
-4.42593e-08
8.35145e-09
-1.86421e-13
-2.02652e-11
6.5566e-12
2.45983e-14
1.0053e-10
-1.61678e-07
1.72114e-08
-3.91358e-09
-4.64484e-08
8.53224e-09
-5.16076e-14
-2.98014e-13
-1.19186e-11
7.508e-12
7.54807e-11
-1.40407e-07
1.34863e-08
-3.02836e-09
-3.63308e-08
7.89639e-09
-6.07956e-13
-4.17118e-12
4.92075e-12
-2.04832e-11
4.11353e-11
-6.37938e-10
-4.97994e-10
1.1311e-10
1.41411e-09
-7.38846e-12
-7.89243e-13
1.19285e-11
2.98511e-13
2.78577e-13
-2.83109e-11
2.90219e-11
-1.06406e-12
1.83201e-13
6.54549e-13
-2.17594e-11
2.11018e-11
-2.98515e-12
1.49171e-13
-1.32091e-13
4.61549e-14
-1.98354e-13
1.05208e-11
-1.43916e-13
-9.98366e-12
-8.677e-14
-7.18616e-14
1.49187e-13
-1.0863e-11
2.85595e-13
1.05805e-11
-3.33769e-13
8.51906e-12
8.55334e-12
-8.75721e-12
-7.15568e-12
-1.11817e-13
-1.04198e-12
2.40653e-11
2.38778e-11
8.87972e-13
-3.76729e-11
-8.375e-12
1.50364e-12
4.28005e-11
4.56183e-12
-4.63798e-13
-4.45838e-13
-7.37934e-13
-1.80342e-12
-2.36254e-09
-1.11777e-07
-3.2013e-09
3.58182e-10
6.74961e-09
2.80774e-07
7.77691e-08
-1.43211e-11
-1.04137e-11
6.57643e-09
2.72285e-05
-0.706146
-0.00430201
0.00027191
0.0115906
0.553381
1.25417e-06
0
-1.03998e-11
6.35719e-09
2.81121e-05
-1.08013
-0.0146286
0.000868553
0.0414345
0.721034
1.08393e-06
-7.3244e-12
9.52115e-12
6.33416e-09
2.825e-05
-1.08546
-0.0152798
0.000917042
0.0425869
0.723603
1.07405e-06
1.12787e-11
3.22701e-12
6.47878e-09
2.78047e-05
-1.06741
-0.0151084
0.000865263
0.0421997
0.712243
1.11201e-06
-1.90669e-12
2.80471e-12
4.26165e-09
2.81522e-05
0.00671865
-0.00485091
-0.00628393
-0.00743419
-0.0252575
5.07123e-07
-1.77142e-12
1.48588e-13
-1.20539e-13
4.40979e-09
9.14909e-09
2.73658e-10
-3.47055e-11
-1.46777e-09
-1.31214e-08
-7.48212e-13
2.82357e-12
-9.37492e-12
-7.24724e-14
9.96304e-12
-1.98003e-13
-9.93011e-14
2.41588e-13
8.24807e-12
-1.81783e-13
-7.69482e-12
5.95335e-13
0
1.05053e-11
1.31199e-11
2.71596e-12
-1.29449e-11
-2.17651e-12
-5.18554e-13
-5.30991e-13
-3.3845e-14
-9.96095e-12
2.96633e-13
1.52941e-12
2.88788e-11
1.34541e-09
4.1176e-10
-3.80128e-11
-8.63237e-10
6.93309e-11
-5.16099e-11
4.74856e-12
-4.40687e-13
-2.93731e-10
-1.43487e-06
-0.0019502
0.000647155
0.00010877
-0.000647679
0.000734068
4.88503e-07
-1.205e-11
-1.03055e-11
-4.06472e-08
-0.591486
0.000199141
3.04886e-12
-1.89374e-11
-1.2981e-07
-0.720286
0.000446837
1.12768e-11
-7.80666e-12
-1.22986e-07
-0.721733
0.000447762
2.77556e-11
-1.13237e-11
-1.43427e-07
-0.71847
0.000443258
1.19012e-11
1.46943e-13
3.27213e-09
0.0182318
-2.9577e-05
-6.75861e-12
1.49853e-11
5.68803e-12
1.26258e-08
5.71095e-06
4.62174e-07
-8.01216e-08
-1.99745e-06
1.11347e-06
1.95198e-10
-9.34888e-12
1.4862e-12
-8.3704e-12
-6.23474e-13
1.47098e-11
-2.21268e-13
-4.37219e-12
2.55418e-12
-8.40149e-13
5.39083e-12
8.02712e-12
-9.21722e-12
1.05957e-11
9.21937e-12
-1.07418e-11
1.90311e-13
-1.07405e-13
-6.00562e-14
3.63042e-13
-5.09349e-14
-1.4871e-13
-1.17303e-11
-1.54985e-11
2.58401e-11
5.71099e-10
5.49759e-10
-2.58098e-11
-1.18745e-09
4.89635e-11
-3.73575e-14
4.45611e-13
1.76453e-12
-3.41471e-10
-1.5127e-06
0.0204979
0.000559604
0.000113753
-0.000995857
0.000831719
5.11693e-07
2.94081e-13
-6.67259e-12
-2.82875e-08
-0.607349
0.000339225
-7.1072e-12
-1.32776e-11
-1.40547e-07
-0.751747
0.000500731
2.92977e-11
-4.04131e-12
-1.30464e-07
-0.753827
0.000502699
3.13177e-11
3.04699e-12
-1.52535e-07
-0.749253
0.000492869
-2.90071e-13
5.00148e-12
3.71615e-09
0.0191846
-3.12999e-05
-4.85259e-12
2.16877e-11
-2.78253e-13
1.33388e-08
6.66962e-06
6.46583e-07
-1.16554e-07
-2.68839e-06
1.25133e-06
2.32468e-10
5.94221e-13
8.02816e-12
-1.13448e-11
-8.25456e-12
1.16586e-11
5.39669e-13
-3.19333e-13
-1.24655e-11
-8.83388e-12
2.15187e-11
1.82897e-11
-4.46248e-13
2.25253e-11
8.99573e-12
-1.37288e-11
-2.05903e-14
-1.21147e-11
1.90484e-13
3.2955e-12
2.94151e-14
8.77899e-12
-1.14432e-11
-1.76253e-11
5.35562e-12
4.79382e-10
5.23516e-10
-3.05453e-11
-1.1709e-09
4.73206e-11
7.69191e-14
0
3.23773e-12
-3.52453e-10
-1.52494e-06
0.0206257
0.00056042
7.61591e-05
-0.00099757
0.00083782
5.16664e-07
-7.35766e-13
-1.65466e-11
-2.11875e-08
-0.608148
0.000341553
7.40088e-12
-1.4439e-11
-1.29042e-07
-0.753301
0.00050285
1.34278e-11
-1.574e-11
-1.21875e-07
-0.755286
0.000504658
2.12262e-11
-3.33933e-12
-1.45137e-07
-0.750656
0.000494336
8.56412e-12
1.0306e-12
3.7324e-09
0.0192164
-3.13849e-05
0
1.4868e-13
4.37732e-14
1.33448e-08
6.75524e-06
6.81112e-07
-1.15555e-07
-2.71817e-06
1.25477e-06
2.32836e-10
-2.97397e-12
0
1.23742e-11
2.48302e-13
-2.48845e-11
-3.98078e-13
1.32292e-11
5.44138e-12
-3.53197e-13
-4.96298e-12
0
1.38406e-11
-2.18939e-13
-1.42432e-11
4.68097e-13
6.92227e-14
-9.59272e-13
-1.07624e-11
1.10316e-11
1.09882e-11
-1.05695e-11
2.08173e-12
-6.28757e-13
3.60116e-13
4.64857e-10
5.38483e-10
-6.99383e-11
-1.13818e-09
4.35304e-11
1.88097e-13
1.48743e-13
1.82598e-11
3.04002e-11
-1.51091e-06
0.0206415
0.000560494
3.842e-05
-0.00103511
0.00083796
5.13817e-07
2.7974e-12
-8.2787e-12
-2.1536e-08
-0.608189
0.000341905
9.14774e-12
-1.44489e-13
-1.29097e-07
-0.753339
0.000503036
1.58934e-11
-1.21382e-11
-1.21431e-07
-0.755439
0.000504749
9.39308e-12
-8.13583e-12
-1.4471e-07
-0.750691
0.000485694
1.1914e-11
1.4732e-13
3.71684e-09
0.0192145
-1.34938e-05
4.86188e-12
2.82657e-12
-6.25394e-12
1.32833e-08
6.75689e-06
6.84936e-07
-1.13351e-07
-2.72885e-06
1.25466e-06
2.47202e-10
3.27342e-12
-9.82318e-12
-2.88276e-12
9.83484e-12
-1.15359e-11
1.06521e-13
1.40777e-11
-5.38825e-13
4.58373e-13
3.8009e-13
-1.48862e-13
-1.14638e-11
-1.21095e-11
1.09333e-11
1.00915e-11
-1.12024e-11
2.51701e-12
5.15978e-13
-1.27717e-11
-1.10445e-12
-1.48922e-13
-1.48752e-13
6.46746e-14
-3.10913e-13
5.45328e-10
5.03322e-10
-2.25412e-11
-1.14228e-09
1.20591e-11
1.6878e-11
-4.31515e-12
1.04612e-11
5.05167e-11
-1.51265e-06
0.0206182
0.000560156
7.6126e-05
-0.00103454
0.000838229
5.15701e-07
-1.47323e-13
-1.84662e-11
-2.66951e-08
-0.607963
0.000341723
7.8502e-12
-9.26136e-12
-1.34633e-07
-0.75285
0.000501872
1.02741e-11
-2.99576e-11
-1.26996e-07
-0.754833
0.000503491
8.68346e-13
-1.07633e-11
-1.51158e-07
-0.750192
0.000491566
-1.0763e-11
0
3.7178e-09
0.0192007
-7.61527e-05
4.27486e-12
1.48825e-13
-2.05426e-12
1.32904e-08
6.68892e-06
6.72481e-07
-9.5921e-08
-2.66909e-06
1.24555e-06
2.21167e-10
3.86995e-12
0
8.65817e-12
-1.65444e-13
-8.79232e-12
4.37626e-13
-1.21524e-14
-3.06645e-14
9.79034e-12
3.84187e-14
-9.67946e-12
-2.97844e-13
-2.18203e-13
6.2668e-13
9.54215e-12
-2.28173e-13
-9.29621e-12
-1.39744e-13
4.29205e-14
-1.16876e-13
-1.4896e-13
2.97597e-13
-1.02543e-12
-2.47561e-11
-1.74081e-10
-6.74744e-12
2.57076e-11
-1.24986e-10
4.62989e-12
3.60386e-11
-1.01212e-11
1.13541e-11
2.77892e-11
-1.49197e-06
0.0175221
0.000437397
3.72587e-05
-0.000759173
0.000794138
5.05969e-07
-7.96208e-12
-5.39169e-12
1.2229e-08
-0.598185
0.000286615
-1.31129e-12
-3.04811e-12
2.60537e-09
-0.731279
0.000331165
-3.62853e-12
-7.25802e-13
9.39001e-09
-0.732857
0.000331374
4.35456e-13
1.4576e-11
-1.71066e-08
-0.729325
0.000333073
-3.0603e-12
-1.47514e-13
2.97907e-09
0.0185125
-2.81898e-05
3.24483e-12
1.48861e-13
1.96517e-11
1.1814e-08
4.77179e-06
3.5727e-07
-4.69591e-08
-1.4305e-06
9.82194e-07
2.05623e-10
0
0
-5.90019e-14
-1.24618e-11
-5.67564e-13
1.34564e-11
8.68824e-13
-1.58245e-11
-3.06705e-13
1.53295e-11
0
-2.24903e-11
-9.82901e-12
1.31104e-11
5.21764e-13
4.47965e-14
1.34986e-11
-6.8311e-14
-1.39988e-11
-8.50463e-14
0
-1.96447e-11
-1.52852e-11
-1.78615e-12
-3.32502e-13
-2.01836e-13
-5.19087e-14
1.02349e-12
-1.17769e-12
-1.30956e-12
-3.27454e-12
-4.12855e-12
1.88496e-11
-4.95128e-08
6.11546e-07
1.72111e-08
1.39098e-09
-3.34902e-08
-3.04991e-06
8.24729e-09
-3.68629e-12
-4.37126e-12
1.36612e-10
-8.01411e-05
-2.66505e-07
1.48619e-11
-1.45149e-13
1.16299e-10
-8.23515e-05
-2.79317e-07
1.45143e-13
1.08868e-11
1.09682e-10
-8.24149e-05
-2.80159e-07
3.91904e-12
1.23878e-11
1.2841e-10
-8.22261e-05
-2.76333e-07
3.93447e-12
-5.89996e-13
-1.16442e-10
-7.29206e-05
-4.97404e-08
-4.12952e-12
1.19101e-12
-1.649e-11
1.39016e-10
-2.53264e-09
-1.93756e-10
3.15311e-11
6.7206e-10
1.68695e-10
-1.35863e-11
2.9776e-13
0
-3.40824e-13
3.8591e-14
3.56582e-13
-7.44962e-12
-5.3577e-14
6.93771e-12
1.33055e-13
1.31377e-12
2.97928e-13
0
1.59905e-14
-2.64827e-14
1.46999e-11
9.42963e-12
-1.4364e-11
7.8617e-13
-9.16363e-12
-1.12401e-11
8.04368e-12
8.9291e-13
-1.10783e-13
1.19138e-12
9.78875e-13
-1.00591e-12
-2.66425e-13
1.85392e-11
2.94204e-12
-2.16432e-11
3.12524e-12
-3.6836e-12
-1.42964e-11
4.16435e-11
3.4459e-11
-1.37365e-12
-4.07087e-11
-1.50875e-12
-1.88133e-11
6.49291e-12
-3.83124e-12
-3.92563e-12
8.5631e-12
-8.18431e-13
-6.09238e-12
-1.38134e-11
-1.95373e-11
-1.54167e-11
1.11532e-11
1.96735e-11
-4.19681e-12
2.89456e-13
-3.71496e-13
6.87442e-12
1.31893e-12
-1.44721e-13
-1.45416e-13
-8.87118e-14
6.48668e-12
2.91421e-13
-1.59945e-11
-2.56458e-11
-9.32738e-12
-4.74553e-12
6.29185e-12
-1.01686e-11
-6.99652e-12
7.73488e-12
-3.0134e-13
-1.93902e-12
4.21213e-12
-1.98954e-12
-7.45621e-13
1.80539e-13
-5.88453e-14
-5.65648e-12
4.46836e-13
6.13288e-14
-7.70196e-13
1.05364e-13
-2.43078e-14
-7.08876e-13
-1.24378e-13
-1.14725e-11
3.39587e-13
1.19164e-11
-2.08508e-11
-3.75151e-13
2.06344e-11
-8.53696e-12
8.64253e-12
8.58678e-12
-8.19514e-12
-2.71363e-13
1.84194e-13
-1.48942e-13
2.38087e-12
2.22389e-13
-1.87673e-11
1.87458e-11
2.29925e-13
-1.84179e-13
-2.7662e-11
3.44252e-11
-5.8331e-12
3.57118e-12
2.94572e-13
-9.50026e-13
4.73621e-11
1.74321e-12
-5.89792e-13
8.90587e-13
-1.97284e-12
-2.06139e-12
1.20929e-12
-4.86077e-12
-1.45253e-13
4.31888e-13
1.49369e-12
-5.77182e-13
0
0
1.26753e-12
1.79027e-11
1.46454e-13
-2.89052e-13
-1.15629e-12
2.08139e-13
-2.50252e-12
1.08602e-11
-6.64837e-12
-4.35818e-13
-1.23804e-13
9.4415e-13
5.54267e-12
1.23473e-11
-2.94653e-13
2.23261e-13
1.58438e-11
7.90398e-12
-1.7677e-11
-1.027e-11
-1.82219e-11
-2.92868e-13
-9.4196e-12
-1.9837e-13
2.47583e-13
-8.10797e-13
8.372e-13
-2.83161e-13
-1.04183e-12
-9.53174e-12
-1.96879e-11
-9.09141e-14
1.92479e-11
8.70345e-12
-9.11101e-12
-7.50148e-12
1.23702e-13
-1.17545e-12
-1.4894e-13
7.44638e-13
6.27739e-13
-4.60327e-15
-8.50187e-12
2.06525e-13
8.7719e-12
9.45972e-12
1.18696e-11
-9.83907e-12
-1.22124e-11
0
-1.00667e-12
5.95795e-13
1.92412e-11
-1.82509e-11
-1.84682e-11
1.79857e-11
2.05952e-12
-1.97367e-12
1.53259e-11
3.09274e-12
-5.00586e-12
-1.84655e-12
4.06824e-12
8.3769e-11
-3.24314e-11
3.80152e-13
-1.46731e-12
5.01211e-12
-2.94546e-13
1.45225e-13
-5.04636e-13
6.12908e-11
1.032e-11
1.45225e-11
1.28599e-11
7.89468e-12
-9.79776e-13
1.74381e-11
-7.51348e-12
5.77993e-13
-1.85312e-12
6.94153e-12
-7.63528e-12
4.19032e-12
-3.34054e-12
2.56221e-11
-1.34255e-11
6.49361e-12
9.00449e-12
6.77601e-12
-5.42845e-12
4.32159e-13
-5.62345e-12
1.17835e-12
-1.14599e-11
-1.44725e-11
-1.20785e-12
1.68395e-12
-7.05759e-13
5.02659e-13
-1.80529e-11
1.85414e-11
-5.55051e-13
0
0
1.72336e-13
1.50153e-13
-4.58659e-13
-7.36982e-13
-1.1536e-11
1.09764e-11
1.43166e-11
-1.03286e-11
-1.93609e-12
2.38293e-12
2.62913e-12
7.38609e-13
1.22392e-11
-1.5141e-13
-3.5672e-12
1.97498e-13
-8.65907e-12
1.05604e-11
1.07235e-11
-2.97595e-12
8.59858e-13
2.97885e-13
2.58236e-11
-2.59005e-11
1.84336e-11
-1.79445e-11
2.94186e-13
1.77785e-11
-3.12479e-12
2.09147e-11
1.77579e-11
3.56608e-11
0
0
-7.38235e-13
9.18556e-11
-5.25689e-11
1.81634e-11
-4.8604e-12
-6.6823e-12
-1.70041e-12
-1.59587e-12
-9.08436e-12
4.21269e-12
-4.04742e-12
1.90447e-11
-4.16924e-11
-7.25216e-12
3.03555e-12
-2.25508e-11
-8.67439e-12
5.48108e-11
-5.5782e-12
1.44554e-13
-7.26411e-13
-2.80735e-13
-4.91123e-13
-6.20012e-12
1.16222e-12
1.208e-11
-2.09729e-11
3.9324e-11
-2.32753e-11
2.10651e-11
1.86038e-11
1.27713e-11
2.53632e-11
-2.5244e-11
2.76982e-11
-5.6546e-11
2.74721e-11
3.47723e-13
3.46639e-13
-9.67377e-12
0
5.20508e-13
-1.13081e-11
-1.76473e-13
2.50158e-11
1.22385e-13
-1.35421e-11
-1.80661e-13
-1.4752e-13
0
5.95762e-13
3.19927e-13
6.40781e-13
-6.30759e-14
-3.93739e-13
-1.54877e-12
1.47457e-13
1.7424e-12
9.06583e-12
9.08593e-12
-9.67222e-12
2.73746e-12
-2.17372e-11
1.14716e-12
1.56398e-11
-1.71268e-11
5.16394e-13
0
2.22766e-13
-4.46444e-12
1.2377e-11
1.21667e-11
1.50264e-13
0
-2.3576e-12
-1.54926e-12
5.74632e-13
4.22487e-12
7.51908e-12
0
-4.36341e-13
4.05277e-13
1.29323e-13
-7.26042e-14
5.38163e-12
1.44808e-13
2.64431e-13
1.92511e-11
7.90108e-12
-1.44808e-13
-3.1859e-12
6.05815e-12
3.98431e-12
-8.06208e-12
2.317e-12
-1.60013e-11
-1.24549e-11
3.83706e-12
-1.45722e-13
0
-2.94763e-12
5.15451e-12
2.36106e-11
-2.9402e-11
7.66348e-12
-1.161e-11
-1.24477e-11
-6.03474e-13
-2.54163e-11
2.53909e-11
1.53881e-13
-2.58431e-13
-1.59983e-13
7.36182e-14
-4.46525e-13
1.62353e-11
2.43559e-13
-1.62401e-11
-1.37347e-11
-3.47587e-13
1.31247e-11
5.81793e-13
1.34232e-11
-2.45831e-13
-1.35543e-11
-1.48961e-13
2.3103e-13
-1.14433e-11
-2.1898e-13
1.13212e-11
-2.10049e-13
4.69795e-14
5.87723e-14
-1.29624e-13
-2.9797e-13
1.19063e-12
5.01362e-14
2.82767e-11
-5.00556e-11
2.14101e-11
-2.21698e-11
2.29424e-11
1.16363e-12
-2.45758e-12
-3.12603e-12
0
-1.25095e-12
2.2301e-12
1.37216e-13
7.96834e-11
-1.57104e-12
5.98126e-13
3.42514e-13
-5.68583e-12
-1.47476e-13
-3.64397e-12
-4.63899e-13
-1.31594e-11
2.0204e-11
-3.20675e-12
2.90432e-13
1.74941e-13
4.33047e-12
-5.60171e-12
-7.26086e-13
-8.71334e-13
-9.98759e-13
-3.88574e-11
5.83239e-12
3.3401e-12
1.89508e-12
-5.90774e-12
-9.39568e-12
-5.57927e-12
1.45771e-13
-5.75295e-12
5.66571e-12
2.14965e-12
1.02255e-12
-6.49001e-12
1.04228e-12
-1.05461e-11
1.26397e-11
-4.65526e-12
4.03064e-13
-4.52266e-13
-3.11651e-11
3.23231e-11
2.4845e-13
-1.20603e-11
0
-2.16089e-13
1.95021e-13
-1.21143e-13
1.72653e-14
1.50529e-11
1.07756e-11
-1.5114e-11
-1.18219e-11
-4.46956e-13
5.95862e-13
8.71046e-13
-6.55597e-13
-1.44433e-13
4.60438e-13
2.01162e-14
-1.28314e-13
2.65051e-14
-1.67521e-13
-2.98006e-13
-1.19065e-11
-1.15947e-11
-2.97829e-13
-8.28679e-14
-5.88945e-14
5.584e-13
5.10528e-13
2.94504e-13
-1.62186e-13
1.20596e-11
1.07644e-11
4.01187e-12
-1.22477e-12
-1.05702e-12
-1.34642e-12
-3.75553e-11
7.36452e-12
-9.55096e-13
1.27406e-12
-3.09713e-12
1.45656e-13
-2.25174e-13
-1.44038e-11
4.37536e-13
-1.50032e-11
-3.62611e-12
-1.90134e-11
2.47271e-11
2.78606e-11
4.35147e-13
0
-6.66585e-13
-7.01049e-12
1.46189e-11
-2.75601e-12
-1.45662e-12
3.57455e-12
-2.36594e-11
-1.27755e-11
-1.25267e-11
7.08006e-12
-5.52511e-12
-8.60965e-13
8.41932e-12
4.12988e-12
3.872e-12
2.39247e-13
-6.06273e-13
4.52461e-13
3.48823e-14
-2.35395e-11
2.33337e-11
1.66478e-11
-1.65897e-11
2.97843e-13
-1.59431e-11
-6.43376e-13
1.60475e-11
1.66559e-13
-1.66852e-13
4.02823e-13
-1.83189e-13
-1.54151e-11
-2.64502e-14
1.54961e-11
0
-9.8727e-14
1.97584e-13
2.15625e-13
1.92884e-14
-8.20911e-14
-3.66875e-13
3.71376e-14
-5.02564e-14
1.48993e-13
3.5711e-12
2.00189e-15
1.81739e-11
-1.80255e-11
1.23883e-12
-2.0796e-12
6.39827e-13
8.82737e-13
-1.06768e-13
-1.6523e-11
5.5996e-12
-6.98563e-12
1.43159e-12
-1.15819e-12
5.9164e-13
1.03219e-13
6.67734e-13
2.51888e-13
0
-9.43179e-12
1.45381e-13
-1.76158e-11
4.17535e-11
-2.61768e-12
-1.19211e-11
-2.45928e-12
1.89575e-11
-2.49033e-11
6.07115e-12
4.62936e-12
6.36537e-12
1.05753e-13
-9.4093e-14
-1.37052e-11
-1.20076e-11
1.45374e-13
-6.93144e-13
1.98081e-11
1.66859e-11
-1.88991e-12
-1.47386e-13
-1.92352e-13
1.09373e-11
5.63217e-12
1.07595e-11
1.86116e-11
1.43214e-11
2.11311e-12
-2.23172e-12
1.33476e-12
-1.20673e-13
-1.51422e-13
-3.8871e-14
-1.77754e-13
1.29543e-11
-1.93694e-12
-1.16373e-11
2.7011e-12
1.12854e-13
-2.0843e-11
1.32793e-14
-7.97202e-13
-1.05335e-13
2.10674e-11
1.1473e-11
0
1.04335e-11
2.27212e-13
-1.02146e-11
-3.31822e-14
-5.58672e-13
-1.41899e-14
1.93411e-13
-1.19424e-13
2.98008e-13
9.22511e-12
-2.93155e-11
1.93676e-11
-2.5248e-13
8.21644e-14
-3.29993e-13
-2.75409e-11
2.69948e-11
1.18856e-12
-3.57254e-12
-9.72356e-12
-2.50271e-12
9.78279e-13
-3.01439e-11
-4.51513e-11
8.12656e-12
2.84359e-12
-4.18884e-11
3.69367e-11
-4.56717e-12
-1.45302e-13
6.95226e-13
1.63215e-11
2.47046e-12
1.19135e-11
2.89105e-13
-1.40098e-12
1.02905e-12
-2.54903e-11
3.61389e-12
-3.03567e-12
2.1423e-11
-1.43132e-11
5.79809e-12
4.33678e-12
1.01706e-12
5.12195e-12
1.70097e-12
3.61794e-11
-1.4094e-11
-1.47352e-13
5.6632e-13
-1.26744e-11
9.44172e-12
-2.94725e-13
-2.82883e-12
-1.10646e-12
3.53883e-13
8.33502e-13
-5.24341e-13
2.41785e-11
-2.34228e-11
-3.98887e-11
4.08668e-11
-4.467e-13
-2.98011e-13
9.06931e-12
-1.29834e-11
-9.0279e-12
1.01366e-11
-7.19911e-14
-1.11029e-11
-1.21667e-11
1.43668e-11
1.25168e-11
-4.47031e-13
2.54528e-14
-1.05394e-11
8.71027e-12
6.91764e-13
-2.97152e-11
1.05533e-11
2.04757e-11
1.03073e-11
9.68873e-12
-2.82803e-12
8.72442e-13
-8.93902e-13
-1.75442e-13
1.51543e-13
-1.75192e-13
-2.59699e-13
-1.15052e-12
1.87702e-12
1.4295e-11
-2.80021e-12
3.71133e-11
-4.98953e-11
-4.46382e-11
8.05546e-13
1.62471e-12
-4.41564e-11
1.87218e-12
-8.13954e-14
-9.8744e-12
-3.7797e-12
-3.13553e-12
5.20308e-11
4.94221e-12
-1.74422e-12
2.89271e-13
2.31951e-11
-1.01598e-11
8.05852e-12
-3.76053e-12
3.61598e-12
5.5529e-14
1.22692e-11
7.70714e-12
1.44643e-13
-2.90731e-13
-1.84088e-11
2.54412e-11
-5.90868e-12
0
1.47405e-13
-1.17383e-13
-6.62559e-12
2.0929e-12
-8.25537e-12
2.75527e-11
2.15418e-11
9.05971e-13
-5.76641e-12
5.74418e-12
1.72038e-15
7.36317e-13
-8.23589e-13
-1.87535e-11
5.66006e-12
0
3.72857e-13
1.78475e-13
2.29953e-14
-1.34039e-13
-4.65106e-13
3.96877e-13
7.29132e-13
-3.48168e-13
-5.96255e-13
4.47369e-13
-1.81076e-13
-1.1806e-11
-8.98071e-12
1.14388e-11
8.94292e-12
-8.84077e-12
-2.06088e-11
-2.06738e-12
9.248e-12
3.72447e-12
-5.62428e-13
1.19163e-12
-2.81028e-13
-6.82667e-14
-2.72805e-13
-4.78038e-14
2.41604e-13
-2.13814e-11
8.34571e-12
1.96293e-11
1.67497e-11
-4.32137e-14
1.15909e-12
-3.30533e-11
4.46491e-11
8.98164e-13
3.50995e-13
2.11866e-12
-2.95203e-12
-1.31149e-11
-2.64371e-12
-6.6002e-11
-9.72999e-12
-1.19478e-11
-1.17508e-11
-1.45599e-11
7.96723e-13
-2.36336e-11
1.4506e-13
-1.23313e-11
-2.33883e-12
-4.52309e-13
-1.49544e-11
5.80267e-13
1.45719e-13
1.78796e-11
-2.58996e-11
-4.80933e-12
-2.76872e-12
8.41428e-12
1.9486e-11
4.07508e-11
-1.96015e-11
4.42909e-13
-3.57747e-12
-6.47542e-13
6.03678e-13
-1.90042e-11
1.87159e-11
-3.34952e-13
-1.79893e-11
4.29774e-11
-2.45965e-11
0
2.11808e-11
1.09179e-11
2.06039e-12
1.65195e-13
-2.24987e-11
8.43236e-12
9.87307e-12
-1.36928e-11
-1.33638e-12
3.43097e-12
-1.49254e-13
2.01827e-13
-1.43305e-13
-5.17492e-13
-1.4159e-13
-4.43121e-14
8.78655e-12
9.34755e-12
-9.69899e-12
-9.55381e-12
-3.73045e-12
-8.80053e-12
-1.07264e-11
9.85949e-12
8.89217e-14
2.16181e-13
-1.11826e-13
5.18316e-13
-8.66605e-13
-1.05968e-11
2.14798e-11
-3.70151e-12
2.55108e-11
-5.78388e-13
8.13597e-14
3.885e-11
-5.32816e-14
3.34891e-12
4.80707e-13
4.44542e-13
-1.4676e-13
-1.02152e-13
2.62572e-13
1.08726e-12
3.8163e-12
2.92715e-13
1.87729e-11
1.49548e-11
-1.65079e-11
-6.87907e-12
0
5.3419e-13
-8.38908e-13
-1.46326e-13
-1.46374e-13
1.65856e-11
1.38382e-11
2.73676e-13
1.95071e-11
-4.25735e-12
1.51132e-11
1.79603e-11
-1.43637e-13
-2.80417e-11
7.41097e-12
1.16434e-11
1.17283e-11
2.23099e-11
-4.75307e-11
2.52706e-11
-6.2475e-13
3.76463e-13
-9.45031e-13
1.78942e-11
4.47937e-13
2.98556e-13
4.81522e-13
3.28764e-13
3.92178e-13
-5.80745e-13
-1.37716e-13
-1.08538e-11
-1.09258e-11
1.11999e-11
1.07498e-11
0
7.97485e-13
2.74578e-13
-1.06664e-12
-1.03418e-13
9.11408e-14
3.80204e-13
-1.18874e-13
-3.98657e-13
0
3.88075e-12
1.91751e-11
1.19551e-12
-7.45147e-14
1.07771e-12
-1.59528e-12
5.94631e-13
3.7063e-13
-1.30557e-13
0
-4.31304e-12
2.3542e-11
3.38097e-11
6.66547e-13
4.03702e-11
3.37622e-11
1.54796e-12
7.10279e-13
3.80693e-11
-1.33922e-12
4.2948e-12
-1.089e-11
-2.6226e-11
2.09733e-11
-2.81596e-12
-4.88269e-12
3.41881e-12
-6.42264e-11
8.78402e-12
-5.9234e-12
2.95935e-13
9.66884e-13
-1.15396e-11
1.0137e-11
-3.11007e-12
0
3.71087e-13
2.78197e-11
-5.0791e-12
3.11326e-12
1.65127e-11
1.57068e-11
1.17481e-11
3.71216e-13
0
1.49303e-13
-1.65611e-13
-1.7836e-11
1.58444e-11
3.22713e-12
-1.95177e-11
1.83181e-11
8.45848e-13
-1.79625e-14
1.19484e-11
-1.31315e-11
2.84225e-12
1.61849e-11
-3.09592e-13
1.26353e-14
-5.78635e-14
5.68905e-12
-2.53582e-13
-5.35002e-12
0
8.63489e-12
9.58661e-12
9.23733e-13
-3.71776e-13
-7.90153e-13
1.96607e-14
2.06609e-11
1.8824e-13
-2.03074e-11
1.48878e-13
0
1.25791e-12
-1.60789e-13
-2.3707e-12
1.18661e-12
5.71617e-13
-1.9791e-13
3.19594e-13
-5.38303e-13
3.12608e-12
-6.38753e-12
3.27531e-11
-2.7381e-11
1.18728e-12
3.16755e-13
-2.54051e-13
-9.02747e-12
1.67966e-11
-1.66504e-11
0
-1.7794e-11
-3.55032e-11
2.03805e-11
2.46069e-13
-9.18068e-13
7.06205e-13
1.85005e-11
1.15013e-11
1.59198e-12
1.15701e-11
-1.61587e-11
-1.22376e-11
-1.30053e-11
2.85943e-11
-2.4197e-11
3.24894e-13
-1.89875e-11
-1.00933e-11
-1.42502e-13
3.85578e-12
3.55808e-12
-5.99129e-12
4.83028e-13
-7.40489e-13
2.20603e-12
2.21207e-11
3.90716e-13
-3.40392e-11
2.23307e-11
-7.41572e-12
1.48309e-13
-1.97044e-11
2.80546e-11
1.19748e-11
8.32715e-13
5.09706e-13
-5.27111e-13
-1.10342e-11
-1.8054e-11
-3.11591e-12
-2.97167e-13
-2.86334e-11
3.18449e-11
-4.88809e-11
5.94519e-13
-4.81934e-12
-1.09114e-12
4.23571e-11
1.6628e-11
-2.82426e-12
-2.23308e-11
-3.83064e-11
1.72341e-11
-1.14071e-13
-2.24629e-11
2.2914e-11
1.20305e-13
-1.7739e-13
-5.25712e-13
2.68048e-12
2.97743e-13
2.16012e-13
2.31946e-13
1.02188e-11
-2.09471e-13
-3.45849e-13
2.25979e-13
-1.00548e-11
-5.96924e-13
-7.44531e-13
7.4233e-13
7.48648e-13
-1.90983e-13
-1.63191e-13
-3.41e-14
1.15915e-11
9.30103e-12
-1.64535e-12
-9.28831e-12
-9.79873e-12
1.02367e-11
1.30471e-13
-1.98992e-11
-1.45962e-11
9.66833e-12
1.27314e-12
-2.5068e-14
2.50821e-11
-5.25082e-12
-1.67669e-11
1.4814e-13
8.52981e-12
8.92323e-13
-1.84616e-12
8.82026e-13
-5.88236e-13
2.93845e-13
2.35131e-11
-2.37743e-11
3.11273e-12
-1.47983e-13
7.89193e-12
-6.45526e-12
-3.41352e-13
8.22012e-13
-8.87228e-13
2.94639e-13
1.78767e-11
-8.84456e-12
-5.9202e-13
8.72907e-12
-3.50461e-12
-1.02483e-11
-7.21379e-13
-4.24736e-12
1.25602e-11
-2.94838e-12
6.58942e-12
-6.64064e-13
-7.39871e-13
9.17338e-12
-3.39412e-12
-5.98426e-12
-4.88124e-14
9.35303e-12
-1.70165e-11
1.00118e-11
-6.64336e-12
-1.2286e-11
-1.92376e-12
0
-1.38312e-11
7.5832e-13
-1.98392e-11
-1.85373e-13
1.04372e-11
6.38835e-12
-7.027e-12
-4.3156e-12
1.37665e-11
8.59342e-12
-2.25278e-12
-1.18659e-11
1.4896e-13
-9.18675e-13
6.67782e-13
2.57971e-13
-1.92116e-11
-5.83551e-12
-9.18772e-12
-1.48373e-13
-3.33218e-12
-1.80389e-11
8.81316e-12
-5.84675e-13
4.67163e-13
1.09591e-11
-4.1071e-13
-1.03908e-11
0
4.45377e-13
4.05127e-13
-3.48612e-13
9.89185e-12
6.63944e-14
-1.04276e-11
-2.83018e-13
3.46064e-13
6.53503e-14
0
4.44611e-13
1.71203e-13
5.7683e-13
4.0757e-13
8.16979e-12
-1.5368e-13
-1.67551e-11
2.86715e-13
7.96959e-12
-2.96402e-13
2.02923e-11
9.43482e-12
-1.13415e-11
-6.31408e-13
-2.5991e-13
-1.2586e-12
1.80509e-13
1.14374e-12
-3.79717e-14
1.48118e-13
9.47205e-12
-6.33324e-13
-7.97999e-13
9.77277e-12
2.68648e-13
-2.23841e-13
1.12381e-11
1.18893e-11
-9.39259e-12
-9.47282e-12
1.42003e-11
5.37551e-13
-1.405e-11
-3.69161e-12
-2.64452e-13
3.30112e-12
1.03608e-11
-2.71863e-14
-1.03233e-11
-1.4792e-13
0
1.40644e-11
2.01198e-13
-1.44311e-11
8.50351e-14
-3.15082e-13
1.12018e-11
-3.48015e-13
-1.40328e-11
-2.07046e-12
-1.10929e-11
-4.04893e-13
1.11446e-11
4.11908e-13
2.08464e-13
-5.96782e-13
-1.16568e-12
-1.16686e-13
8.36491e-13
0
-1.16863e-11
-1.23975e-11
8.50083e-12
-2.90267e-13
-8.91799e-12
6.4219e-13
-9.56367e-12
4.00851e-14
9.2744e-12
-2.95839e-13
-5.92027e-13
-5.15473e-13
8.50793e-12
-1.89541e-13
-1.80006e-11
-8.20192e-14
9.89522e-12
-1.69223e-15
-8.39802e-12
-8.14028e-12
0
-3.89282e-14
1.74373e-13
-9.49666e-14
-1.15768e-13
1.06364e-11
-3.35596e-13
-1.0386e-11
1.30846e-13
-1.4812e-13
-2.37114e-12
9.3107e-12
1.19037e-11
-3.14531e-14
-2.16714e-13
1.62915e-14
3.68552e-13
-9.63062e-14
4.62847e-14
1.482e-13
2.96112e-13
-4.64845e-14
-1.10336e-11
7.28056e-12
1.10491e-11
-7.07133e-12
-2.60838e-13
9.69767e-12
-2.49691e-14
-9.7714e-12
-4.4402e-13
-1.47631e-11
-1.36828e-11
6.00512e-13
-5.45583e-13
8.86844e-14
8.50774e-13
6.18234e-13
7.78138e-12
7.84419e-12
-5.91781e-13
-3.80455e-13
-1.90893e-14
7.07258e-15
-1.0709e-13
-1.62056e-13
-3.16789e-14
5.87394e-14
9.52461e-12
9.32035e-12
8.43055e-12
6.85269e-13
-8.50523e-12
-1.08248e-12
1.6217e-13
4.61629e-13
-4.13004e-13
1.56998e-13
-7.43766e-14
-1.47892e-13
2.95779e-13
8.33771e-14
-1.64585e-13
1.16444e-13
-8.3267e-12
-1.5767e-13
8.35829e-12
-1.804e-14
-5.05441e-12
-4.87976e-12
3.40143e-12
-8.63441e-12
-2.99216e-12
9.76381e-12
-9.05575e-12
-2.05738e-13
8.3866e-12
3.49239e-14
3.2169e-13
-1.47868e-13
-8.72623e-12
-9.34558e-12
-4.84046e-13
1.01257e-12
6.06522e-13
9.57251e-12
8.67896e-12
-1.96276e-11
-8.67878e-12
9.61246e-12
0
-6.11426e-13
1.43598e-14
7.46446e-13
4.45938e-14
-2.2761e-13
2.61846e-13
-3.12747e-14
-1.34476e-13
0
0
-5.50289e-14
-4.6744e-13
-9.49437e-12
5.57701e-13
9.84744e-12
-6.51092e-14
-3.40742e-13
1.13803e-13
0
6.95814e-12
-1.01986e-11
-8.64728e-12
9.94039e-12
1.17707e-11
8.08995e-12
-1.18638e-11
-9.00032e-12
-6.4293e-14
1.4804e-13
5.91907e-13
7.84969e-12
1.53261e-13
-7.40965e-12
-9.23651e-12
4.66998e-13
2.16914e-11
-5.35133e-13
-1.26512e-11
0
0
2.71149e-13
1.67085e-14
3.10854e-14
-2.3153e-13
-2.79468e-13
5.10439e-13
6.33719e-14
-5.1404e-13
0
-9.46685e-12
-9.8901e-12
-1.02148e-12
-4.26505e-13
5.13548e-13
4.96406e-13
-1.12396e-11
-1.08743e-13
1.11253e-11
0
1.47897e-13
1.21291e-11
4.14873e-13
-1.12489e-11
-1.64523e-13
-1.50256e-12
-1.67589e-13
4.439e-13
-2.16407e-14
-1.47881e-13
-4.43663e-13
5.29256e-14
2.32257e-13
5.08608e-13
1.06137e-11
-3.76892e-13
-1.08009e-11
-1.29055e-11
-1.11879e-11
1.3308e-12
8.42974e-12
-1.86972e-13
-2.3662e-13
8.90033e-12
4.08264e-13
9.93738e-14
-5.87538e-13
1.11389e-13
-5.09285e-14
0
-1.03528e-11
-2.17706e-11
-1.04612e-13
1.14687e-11
4.0571e-13
-8.83538e-14
-2.76319e-13
-1.22033e-11
-1.10809e-14
1.21255e-11
-1.47913e-13
-1.22366e-11
-1.07116e-11
1.1981e-11
1.03791e-11
2.1828e-13
2.42957e-13
-6.3716e-13
2.57364e-13
5.91577e-13
-9.61633e-12
-9.54181e-12
1.1924e-13
-1.39011e-13
-1.14146e-13
-3.18064e-14
-1.11831e-11
3.1748e-14
1.12047e-11
0
1.47969e-13
-1.33588e-13
2.87526e-13
5.16652e-14
-6.69721e-13
-1.98209e-13
5.67355e-13
8.18525e-14
-2.8405e-13
-2.95913e-13
-1.00593e-11
-7.41142e-13
9.60871e-12
1.44463e-13
2.64437e-18
-2.40494e-13
3.55826e-13
1.54856e-13
-9.50576e-14
0
-2.95833e-13
4.37242e-14
-1.83114e-12
-2.6882e-13
2.24866e-12
-1.19647e-13
1.57788e-13
3.46454e-14
-3.26041e-14
1.47904e-13
9.02177e-12
6.94949e-14
-9.01301e-12
1.17928e-11
5.63942e-13
-9.78568e-13
-1.73573e-12
-1.08002e-11
1.24882e-11
1.13872e-11
0
-9.1421e-12
-8.20187e-14
9.29014e-12
5.30003e-13
8.92895e-14
-1.14987e-11