/*--------------------------------*- C++ -*----------------------------------*\
  =========                 |
  \\      /  F ield         | OpenFOAM: The Open Source CFD Toolbox
   \\    /   O peration     | Website:  https://openfoam.org
    \\  /    A nd           | Version:  10
     \\/     M anipulation  |
\*---------------------------------------------------------------------------*/
FoamFile
{
    format      ascii;
    class       volScalarField;
    location    "1.2";
    object      gradTx;
}
// * * * * * * * * * * * * * * * * * * * * * * * * * * * * * * * * * * * * * //

dimensions      [0 -1 0 1 0 0 0];

internalField   nonuniform List<scalar> 
46825
(
1.49086e-13
-1.32471e-13
-2.65962e-11
-1.65708e-13
4.09216e-11
-7.10549e-13
-1.85834e-11
5.95096e-13
4.13953e-12
-4.47299e-13
2.98106e-13
1.32386e-13
1.81374e-13
1.08618e-12
7.51205e-14
-1.1225e-12
-2.77616e-11
2.36808e-13
2.87254e-11
2.98125e-13
-2.29313e-11
6.90847e-12
2.18924e-11
-2.93056e-11
-2.16184e-11
-9.99948e-14
-4.92741e-13
4.6508e-13
7.20227e-13
-1.48912e-13
-1.48691e-13
1.4107e-13
-2.53873e-11
-6.24518e-13
2.52963e-11
3.36766e-13
3.12218e-11
-6.21047e-13
-3.10741e-11
2.97386e-13
2.2134e-11
2.25779e-11
6.15345e-13
-3.76315e-13
6.60846e-14
-3.9843e-13
2.98398e-11
-3.79543e-13
-2.97312e-11
4.45643e-13
-2.16909e-11
-8.53715e-14
5.69462e-13
-2.15927e-11
2.58877e-11
-7.25514e-14
-2.59523e-11
-1.25597e-13
-1.53433e-13
2.97125e-13
1.94845e-11
6.52182e-12
2.10898e-12
-7.64124e-12
-2.07394e-11
5.91091e-13
-8.67695e-13
1.34704e-13
3.76544e-13
2.97462e-13
-4.46889e-13
-1.42844e-13
9.6382e-12
-1.55733e-13
-9.58785e-12
2.53793e-13
-2.31171e-11
1.89916e-13
2.33252e-11
0
1.491e-13
-1.70669e-11
-4.76137e-14
1.67556e-11
2.18935e-13
-2.33358e-13
6.50762e-13
2.87721e-13
-5.81075e-13
-1.49101e-13
1.49119e-13
-1.23762e-15
-9.05901e-13
-6.98666e-14
5.94183e-13
-1.82756e-13
-4.87199e-13
-3.49144e-14
5.29112e-13
1.49126e-13
-2.98394e-13
-8.98411e-14
1.64995e-13
4.16665e-13
2.69529e-15
-1.67543e-14
2.09226e-11
-3.31911e-13
1.03574e-12
2.16363e-11
0
-5.95427e-14
-2.73878e-11
2.1121e-11
2.7325e-11
-2.12788e-11
4.87635e-14
4.28081e-13
7.39383e-14
1.49332e-13
0
5.31165e-12
4.32431e-11
-4.36672e-11
8.90881e-13
6.35254e-14
-4.99388e-13
-7.71122e-11
1.29801e-11
-1.49297e-13
-1.49194e-13
-9.42032e-12
1.14907e-12
5.20049e-11
-1.16908e-11
-4.15328e-11
-4.45901e-13
4.78744e-13
-2.24291e-13
0
2.98316e-13
9.53453e-12
-4.6899e-11
4.55812e-11
6.40082e-13
-5.34167e-11
5.40696e-11
-4.59344e-11
7.8145e-12
-1.04409e-12
-1.49173e-13
-4.00122e-12
8.32999e-12
-1.07984e-12
-3.27462e-13
4.93282e-13
-1.03502e-13
3.75483e-13
4.11329e-13
2.98332e-13
2.11914e-11
-6.84354e-12
-2.71279e-11
1.02875e-12
6.07169e-11
-6.09303e-11
-2.93723e-13
3.27179e-12
-7.47898e-13
0
0
8.94396e-12
-1.47222e-11
-1.62154e-12
2.05763e-12
-3.09958e-13
-2.63861e-13
-4.62422e-15
-1.39957e-11
3.65877e-11
5.07825e-12
5.37253e-12
7.22439e-15
-1.40342e-12
2.19786e-11
1.10375e-12
-4.54769e-11
2.28542e-13
2.38218e-11
4.48082e-13
2.98441e-13
-5.36732e-14
-4.59298e-13
-3.27603e-13
-7.08003e-14
7.96666e-13
2.03454e-13
-2.15123e-13
-2.36041e-11
-2.3429e-11
-3.11751e-11
-2.95436e-12
5.09063e-13
-2.82422e-11
-7.37149e-13
3.47697e-11
5.20244e-14
-3.50638e-11
-8.88615e-14
1.49191e-13
3.98408e-11
4.03788e-11
-2.22343e-13
2.00356e-13
2.71944e-13
-3.32432e-13
-4.23932e-13
4.38476e-11
-4.32389e-11
-1.49247e-13
-4.47221e-12
-4.56389e-12
1.48521e-12
-4.09375e-12
-1.02265e-12
5.05635e-13
1.28762e-12
-4.15035e-11
4.36609e-11
2.98189e-13
-4.76671e-11
-3.8234e-11
1.25941e-09
-3.03967e-07
4.03416e-09
-7.76687e-10
-1.67659e-08
8.193e-08
7.99581e-11
6.01841e-11
1.49007e-13
8.38158e-11
2.02385e-09
-2.64712e-07
2.18262e-07
-4.90778e-08
-6.28017e-07
1.42317e-07
-2.19215e-13
-4.84278e-11
1.54974e-11
7.5552e-14
2.12094e-09
-2.68599e-07
2.32615e-07
-5.27372e-08
-6.57708e-07
1.45694e-07
-6.91305e-14
-2.98014e-13
-2.81577e-11
1.75808e-11
1.96887e-09
-2.36422e-07
1.91632e-07
-4.25591e-08
-5.46617e-07
1.26624e-07
-7.84858e-13
-9.23619e-12
1.11835e-11
-4.86158e-11
1.11738e-10
-1.19793e-08
-8.93997e-09
2.06051e-09
2.36775e-08
-6.2026e-10
-1.92613e-13
2.8032e-11
2.98511e-13
2.78577e-13
-6.63892e-11
6.74306e-11
-9.94341e-13
2.01831e-13
8.25558e-13
-5.18115e-11
5.1311e-11
-8.35843e-12
1.49171e-13
-1.69983e-13
4.61549e-14
-2.09919e-13
2.5418e-11
-1.34912e-13
-2.4882e-11
-1.06283e-13
-8.32312e-14
1.49187e-13
-2.60414e-11
4.16437e-13
2.55091e-11
-1.69392e-13
2.09129e-11
1.40729e-11
-2.09669e-11
-1.30594e-11
-1.19584e-13
-1.04198e-12
5.76378e-11
5.65993e-11
8.87972e-13
-7.36438e-11
-6.17786e-12
1.29855e-12
7.46309e-11
2.73687e-12
-5.64674e-13
-4.45838e-13
1.47587e-12
2.14141e-10
1.09115e-08
-7.39465e-07
-2.26996e-08
-5.78152e-09
2.70247e-08
1.99013e-06
-1.09323e-07
-3.54337e-11
-5.83751e-11
6.70207e-09
0.0001968
-1.2079
-0.0102451
0.000654962
0.0276271
1.11116
1.27009e-05
4.43042e-11
-6.76721e-11
4.67716e-09
0.000203873
-1.92656
-0.0344317
0.00204346
0.0976827
1.39663
1.17065e-05
2.82722e-11
-2.24113e-11
4.56193e-09
0.000204635
-1.93718
-0.035957
0.00215684
0.10038
1.40163
1.16639e-05
7.47029e-11
-3.5057e-11
5.42451e-09
0.00020225
-1.90228
-0.035573
0.00203619
0.0995142
1.37684
1.18314e-05
3.82805e-11
1.00379e-11
9.09149e-09
0.000195528
0.0391886
-0.0322796
-0.0370691
-0.0411042
-0.115738
9.34793e-06
-7.08568e-12
1.48588e-13
-1.20539e-13
8.68231e-09
6.66468e-08
3.96264e-09
-6.57777e-10
-1.62064e-08
-1.3872e-07
-2.3544e-10
6.6874e-12
-2.33629e-11
5.60047e-14
2.38505e-11
5.44241e-15
-3.56511e-14
1.73789e-13
1.94894e-11
-3.27526e-13
-1.91316e-11
5.95335e-13
0
2.54764e-11
3.10453e-11
8.3076e-12
-2.99642e-11
-6.79738e-12
-2.09973e-12
-7.6434e-13
-1.23748e-14
-2.45307e-11
4.44949e-13
1.52941e-12
8.92884e-11
1.29062e-08
4.35974e-09
-4.61393e-10
-8.7708e-09
2.55184e-09
-1.25096e-10
1.18714e-11
1.57178e-11
-1.40356e-09
8.01888e-07
-0.00534006
0.0015313
0.000261935
-0.00151984
0.00189602
-2.51176e-07
-2.95373e-11
-2.46606e-10
-8.39436e-07
-1.41775
0.00138085
2.50007e-10
-3.16008e-10
-1.38032e-06
-1.71799
0.00266884
2.99413e-10
-2.8928e-10
-1.34336e-06
-1.72143
0.00267674
3.37693e-10
-2.5159e-10
-1.45181e-06
-1.71367
0.00264597
2.51667e-10
1.38126e-11
6.22131e-08
-0.0111093
-0.000116991
-2.52713e-11
3.5312e-11
1.2742e-11
1.11322e-07
3.98117e-05
2.74362e-06
-4.74135e-07
-1.18785e-05
4.97517e-06
6.23632e-10
-2.1814e-11
1.4862e-12
-2.18704e-11
-6.69954e-13
2.95708e-11
3.89107e-13
-4.947e-12
8.42418e-13
-7.22505e-13
7.46024e-12
1.04055e-11
-2.15564e-11
2.57755e-11
2.13764e-11
-2.40107e-11
9.27802e-13
-7.34919e-13
-1.78922e-12
5.52318e-13
-3.58458e-14
-1.4871e-13
-2.86577e-11
-3.71993e-11
1.03657e-10
1.51699e-08
5.7237e-09
-5.20095e-10
-1.15486e-08
2.98766e-09
-1.74432e-14
4.45611e-13
1.52926e-11
-1.65224e-09
5.24451e-07
0.0466269
0.00132352
0.000273643
-0.00234198
0.00200681
-1.72781e-07
-1.1028e-11
-2.23822e-10
-7.75687e-07
-1.4562
0.00228029
1.92475e-10
-2.99468e-10
-1.45883e-06
-1.79351
0.00285296
3.36129e-10
-2.75964e-10
-1.40403e-06
-1.79846
0.00286388
3.39733e-10
-2.01246e-10
-1.51853e-06
-1.78757
0.00281424
2.09867e-10
2.03001e-11
6.71135e-08
-0.00987937
-0.00012601
-1.41166e-11
5.15455e-11
-1.76692e-12
1.18367e-07
4.69221e-05
3.67627e-06
-6.62142e-07
-1.53308e-05
5.5997e-06
9.54919e-10
5.94221e-13
1.20422e-11
-2.80038e-11
-1.23121e-11
2.96593e-11
1.22653e-12
-9.89565e-13
-3.13395e-11
-2.06468e-11
5.16493e-11
4.37169e-11
-5.94998e-13
5.41929e-11
2.15003e-11
-3.14826e-11
7.13822e-13
-2.9387e-11
-1.54031e-12
7.90414e-12
1.13268e-14
2.12779e-11
-2.74934e-11
-4.29447e-11
5.86143e-11
1.49681e-08
5.72825e-09
-5.41368e-10
-1.17085e-08
3.05115e-09
7.69191e-14
0
1.55999e-11
-1.84657e-09
4.90219e-07
0.0469261
0.00132437
0.000183749
-0.00234593
0.00201673
-1.57242e-07
-1.19194e-11
-2.45876e-10
-7.37176e-07
-1.4581
0.00229426
2.18979e-10
-2.94411e-10
-1.3961e-06
-1.79721
0.00286476
2.91225e-10
-2.9444e-10
-1.35808e-06
-1.80193
0.00287485
3.0843e-10
-2.12265e-10
-1.47888e-06
-1.79091
0.00282253
2.27893e-10
1.06005e-11
6.7349e-08
-0.00989236
-0.000126381
-1.6045e-11
1.4868e-13
-2.54555e-13
1.19402e-07
4.7447e-05
3.87244e-06
-6.56254e-07
-1.54981e-05
5.60825e-06
9.79648e-10
-7.28622e-12
0
2.93209e-11
2.84513e-13
-5.79704e-11
2.07674e-13
3.05879e-11
3.74151e-12
-2.19275e-13
-4.96192e-12
0
3.37831e-11
-2.51918e-13
-3.42075e-11
2.30047e-12
7.87064e-13
-1.66948e-12
-2.73172e-11
2.56569e-11
2.60382e-11
-2.51584e-11
2.08173e-12
-6.28757e-13
4.43807e-11
1.50667e-08
5.75926e-09
-6.62249e-10
-1.16039e-08
3.02536e-09
-1.10468e-13
1.48743e-13
5.61046e-11
1.17875e-10
5.85339e-07
0.0469637
0.00132464
9.37802e-05
-0.0024351
0.00201625
-1.67782e-07
-3.82803e-12
-2.21927e-10
-7.39219e-07
-1.4582
0.00229623
2.26516e-10
-2.58636e-10
-1.3968e-06
-1.7973
0.0028658
2.9793e-10
-2.87993e-10
-1.35602e-06
-1.8023
0.00287536
2.84972e-10
-2.2606e-10
-1.47665e-06
-1.791
0.00279164
2.55134e-10
1.32588e-11
6.74266e-08
-0.00988271
-2.87895e-05
3.38858e-12
3.42164e-12
-7.45042e-12
1.19353e-07
4.74722e-05
3.89439e-06
-6.43934e-07
-1.5559e-05
5.60736e-06
1.03356e-09
7.88598e-12
-2.38138e-11
-2.69483e-12
2.3371e-11
-2.98302e-11
8.59789e-13
3.31564e-11
-2.30447e-12
5.29975e-13
3.80671e-13
-1.48862e-13
-2.82873e-11
-2.89274e-11
2.69699e-11
2.59277e-11
-2.64428e-11
5.21449e-12
-1.44059e-12
-3.00378e-11
-1.10445e-12
-1.48922e-13
-1.48752e-13
6.46746e-14
3.94166e-11
1.51612e-08
5.59229e-09
-5.10995e-10
-1.14626e-08
2.9436e-09
2.076e-11
-8.92789e-12
3.72772e-11
1.6444e-10
5.68861e-07
0.0469094
0.00132394
0.00018369
-0.00243389
0.00201729
-1.6174e-07
-1.45849e-11
-2.59544e-10
-7.67848e-07
-1.45766
0.00229334
2.28383e-10
-2.91154e-10
-1.42685e-06
-1.79614
0.00285929
2.88978e-10
-3.38651e-10
-1.38598e-06
-1.80085
0.00286831
2.70779e-10
-2.41301e-10
-1.51231e-06
-1.78981
0.00280971
1.91552e-10
8.99205e-12
6.73219e-08
-0.00989588
-0.000338578
-1.32668e-12
4.46474e-13
-2.06211e-12
1.19253e-07
4.69701e-05
3.82344e-06
-5.44523e-07
-1.52185e-05
5.56876e-06
9.04191e-10
8.33528e-12
0
2.08563e-11
8.0564e-15
-1.93639e-11
1.08651e-12
-7.07099e-13
-1.76009e-12
2.31636e-11
-1.08402e-13
-2.29329e-11
-2.97844e-13
-2.17621e-13
6.62984e-13
2.2986e-11
-2.02761e-13
-2.24458e-11
-3.58895e-13
5.32906e-14
-1.17021e-13
-1.4896e-13
2.97597e-13
-1.02543e-12
-1.92463e-11
8.70693e-09
2.04608e-09
-1.60351e-10
-4.48483e-09
2.31287e-09
9.63519e-11
-2.48564e-11
2.96387e-11
9.68523e-11
6.39257e-07
0.0395303
0.00103398
9.10103e-05
-0.00178376
0.00200546
-1.9211e-07
-2.30016e-11
-4.76509e-11
-5.12486e-07
-1.43371
0.00199663
3.01597e-11
-3.65773e-11
-5.98281e-07
-1.74408
0.00225554
2.51094e-11
-3.54191e-11
-5.61602e-07
-1.74783
0.00225995
3.38204e-11
-3.78975e-12
-7.04852e-07
-1.73943
0.002245
3.24975e-11
3.2453e-12
5.74638e-08
-0.0110758
-0.000109256
2.94984e-12
1.48861e-13
4.65309e-11
1.05386e-07
3.3242e-05
2.36889e-06
-3.12423e-07
-9.44665e-06
4.24038e-06
7.85659e-10
0
0
-5.90019e-14
-3.02663e-11
-3.57982e-13
3.12257e-11
8.03769e-13
-3.67359e-11
-1.60984e-13
3.61671e-11
0
-5.40662e-11
-2.27571e-11
3.15477e-11
4.70811e-13
7.04553e-14
3.20693e-11
-1.90702e-13
-3.27306e-11
-8.51917e-14
0
-4.67307e-11
-3.7939e-11
-1.48846e-12
-4.7401e-11
-1.06837e-11
1.14681e-12
2.1498e-11
2.53203e-11
-1.30956e-12
-8.3352e-12
-9.73159e-12
2.36121e-11
-5.20946e-07
7.66865e-06
2.2236e-07
1.86976e-08
-4.31882e-07
-3.25091e-05
8.68145e-08
-9.142e-12
-9.17965e-12
3.83746e-09
-0.00104081
-3.23662e-06
3.5115e-11
-1.45149e-13
3.76283e-09
-0.00107116
-3.39456e-06
1.45143e-13
2.61284e-11
3.76551e-09
-0.00107241
-3.40467e-06
9.28957e-12
3.04594e-11
3.77805e-09
-0.00106968
-3.35737e-06
9.90904e-12
-5.89996e-13
2.60951e-09
-0.000968538
-1.81057e-06
-9.88134e-12
1.19101e-12
-1.82811e-11
3.11806e-09
-3.04266e-08
-2.28624e-09
3.35977e-10
8.0861e-09
5.05288e-08
-9.78329e-13
2.9776e-13
0
-3.44458e-13
5.21266e-14
3.32677e-13
-7.44962e-12
-6.0097e-14
6.93771e-12
1.00511e-13
1.31377e-12
2.97928e-13
0
1.59905e-14
-2.64827e-14
3.49126e-11
2.30147e-11
-3.47679e-11
1.57177e-12
-2.18366e-11
-2.55735e-11
2.0854e-11
8.9291e-13
-1.10783e-13
1.48923e-12
9.78875e-13
-1.00591e-12
-5.75369e-13
4.44064e-11
6.47248e-12
-5.18058e-11
7.88751e-12
-8.84065e-12
-3.42827e-11
1.02282e-10
8.43379e-11
-1.37365e-12
-1.00198e-10
-1.51219e-12
-8.13236e-11
1.52317e-11
-8.98868e-12
-9.59599e-12
1.99858e-11
-1.40221e-12
-1.71892e-11
-3.32976e-11
-4.63106e-11
-3.82551e-11
1.11532e-11
4.688e-11
-8.68305e-12
2.89456e-13
-3.71496e-13
1.56983e-11
3.88351e-12
-1.44721e-13
0
-8.87118e-14
6.48668e-12
2.91421e-13
-3.59149e-11
-6.14615e-11
-2.38101e-11
-4.74553e-12
6.29185e-12
-2.32846e-11
-1.66726e-11
1.87969e-11
3.0134e-13
-1.93902e-12
4.20772e-12
-1.98954e-12
-5.4584e-13
1.80539e-13
-1.28283e-13
-1.33969e-11
4.46836e-13
6.22008e-14
-7.94085e-13
1.05364e-13
-3.15154e-14
-7.42228e-13
-2.31718e-13
-2.82702e-11
4.89236e-13
2.87482e-11
-5.03399e-11
-4.98845e-13
5.00118e-11
-2.09594e-11
1.38653e-11
2.08814e-11
-1.33752e-11
-2.71363e-13
1.5265e-13
-1.48942e-13
6.84499e-12
2.22389e-13
-4.4982e-11
4.47951e-11
2.29925e-13
-1.84179e-13
-6.65584e-11
7.44408e-11
-5.94452e-12
4.61277e-12
2.94572e-13
-9.50026e-13
1.13938e-10
4.0675e-12
-1.17958e-12
8.95023e-13
-2.00159e-12
-3.21361e-12
1.20929e-12
-1.14891e-11
-1.45253e-13
4.31888e-13
1.49369e-12
-5.92749e-13
0
0
1.26753e-12
4.32665e-11
1.46454e-13
-2.89052e-13
-1.15629e-12
2.08139e-13
-2.50252e-12
2.67102e-11
-1.60428e-11
-4.35818e-13
-1.23804e-13
9.4415e-13
1.37108e-11
2.91977e-11
-2.94653e-13
2.23261e-13
3.52884e-11
1.80035e-11
-4.2572e-11
-2.35168e-11
-4.42119e-11
-2.92868e-13
-2.21723e-11
-1.9837e-13
2.35974e-13
-8.10797e-13
8.372e-13
-2.83161e-13
-1.04183e-12
-2.29358e-11
-4.76791e-11
-2.78496e-13
4.68486e-11
2.06785e-11
-2.20651e-11
-1.9411e-11
1.75484e-13
-1.15729e-12
-1.4894e-13
7.44638e-13
6.05356e-13
-4.60327e-15
-9.68706e-12
2.39053e-13
9.90028e-12
2.26771e-11
2.80741e-11
-2.32099e-11
-2.87438e-11
0
-1.00667e-12
5.95795e-13
4.61718e-11
-4.51971e-11
-4.27985e-11
4.22622e-11
1.76531e-12
-2.27238e-12
3.67525e-11
7.21639e-12
-1.39133e-11
-2.46367e-12
4.06824e-12
1.99394e-10
-6.25721e-11
3.80152e-13
4.50095e-14
1.45244e-11
-2.94546e-13
1.45225e-13
-5.04636e-13
1.45564e-10
1.87505e-11
2.9045e-11
3.09216e-11
1.72672e-11
-9.79776e-13
4.14705e-11
-1.70498e-11
5.77993e-13
-1.85312e-12
6.93702e-12
-1.77667e-11
9.97008e-12
-8.13348e-12
5.89428e-11
-4.40492e-11
1.61246e-11
2.19303e-11
1.5467e-11
-1.40438e-11
4.32159e-13
-1.40564e-11
4.27151e-12
-3.051e-11
-3.38879e-11
-1.20785e-12
1.32854e-12
-7.05759e-13
4.80434e-13
-4.47803e-11
4.51913e-11
-5.13838e-13
0
0
1.47924e-13
2.33572e-13
-4.58659e-13
-7.72258e-13
-2.7723e-11
2.58863e-11
3.0557e-11
-2.5352e-11
-1.93609e-12
2.38293e-12
2.62913e-12
7.38609e-13
2.99335e-11
-3.43761e-14
-1.79866e-11
2.17928e-13
-1.19876e-11
2.51472e-11
2.50216e-11
-7.29108e-12
8.59858e-13
2.97885e-13
6.15322e-11
-6.16275e-11
4.36278e-11
-4.31454e-11
-2.94186e-13
4.25675e-11
-7.29118e-12
5.15503e-11
4.30768e-11
8.45633e-11
0
0
-7.38235e-13
2.17289e-10
-1.26973e-10
4.90537e-11
-1.16355e-11
-1.16214e-11
-1.7014e-12
-1.59587e-12
-2.02763e-11
9.87803e-12
-9.25125e-12
4.56919e-11
-9.89341e-11
-1.61159e-11
7.66116e-12
-5.49315e-11
-2.07083e-11
1.2809e-10
-7.04614e-12
1.44554e-13
-7.26411e-13
-2.80735e-13
-4.91123e-13
-6.20012e-12
1.16222e-12
2.94634e-11
-4.91046e-11
9.27643e-11
-4.80144e-11
4.94956e-11
4.28632e-11
3.15866e-11
6.06906e-11
-6.01259e-11
6.67688e-11
-1.35243e-10
6.74318e-11
-4.8727e-13
6.48059e-13
-2.61936e-11
0
5.19927e-13
-2.6626e-11
-7.85903e-14
5.98509e-11
-1.68968e-13
-3.31531e-11
-1.80661e-13
-1.47811e-13
0
5.95762e-13
2.98996e-13
6.40781e-13
-1.16491e-13
-4.1863e-13
-1.55754e-12
1.47457e-13
1.77924e-12
2.18844e-11
2.20446e-11
-2.30645e-11
7.21517e-12
-5.21097e-11
1.15024e-12
2.72591e-11
-2.85566e-11
5.16394e-13
-2.9411e-13
-3.18403e-13
-5.65496e-12
2.99111e-11
3.00311e-11
1.50264e-13
0
-2.3576e-12
-1.54926e-12
5.74632e-13
3.47798e-12
1.82007e-11
0
-4.36341e-13
4.05277e-13
3.31248e-13
-7.26042e-14
1.11996e-11
1.44808e-13
2.64431e-13
4.40294e-11
1.85822e-11
-1.44808e-13
-7.09587e-12
1.45478e-11
3.98431e-12
-1.89825e-11
6.22693e-12
-3.88395e-11
-2.97349e-11
3.24869e-12
1.16578e-12
0
-4.71621e-12
8.39636e-12
5.2404e-11
-6.98481e-11
1.79797e-11
-2.93226e-11
-3.0362e-11
-6.03474e-13
-6.15439e-11
6.11717e-11
1.65046e-13
-3.43247e-13
-1.06046e-12
1.30193e-13
-4.46525e-13
3.90243e-11
3.83214e-13
-3.88978e-11
-3.22606e-11
-4.66796e-13
3.16976e-11
5.98554e-13
3.35489e-11
-3.67388e-13
-3.38113e-11
-1.48961e-13
2.3103e-13
-2.67528e-11
-4.13043e-13
2.65957e-11
-2.65078e-13
1.21577e-13
5.87723e-14
-1.1014e-13
-2.9797e-13
1.19063e-12
5.01362e-14
6.7864e-11
-1.19561e-10
5.1676e-11
-5.30518e-11
5.40403e-11
1.16363e-12
-2.39833e-12
-7.29408e-12
0
-1.25095e-12
2.2301e-12
-1.34438e-12
1.8901e-10
-1.57104e-12
6.41357e-13
-2.01479e-14
-1.40364e-11
-1.47476e-13
-8.59977e-12
-4.63899e-13
-3.26889e-11
4.66078e-11
-7.5796e-12
4.35648e-13
1.58154e-13
4.33047e-12
-7.81291e-12
-1.45217e-12
-8.71334e-13
-9.98759e-13
-9.62482e-11
1.48394e-11
7.69674e-12
1.89508e-12
-5.90774e-12
-4.00286e-11
-1.41684e-11
1.45771e-13
-1.18009e-11
9.54267e-12
2.14965e-12
2.70246e-12
-1.19475e-11
1.04228e-12
-1.05461e-11
1.26397e-11
-4.65526e-12
4.1627e-13
-4.53437e-13
-7.46903e-11
7.65994e-11
2.4845e-13
-2.88852e-11
0
-2.13764e-13
1.95021e-13
-1.55593e-13
1.72653e-14
3.62538e-11
2.54578e-11
-3.65507e-11
-2.67098e-11
-4.46956e-13
7.44828e-13
8.71046e-13
-7.22453e-13
-1.44433e-13
4.60438e-13
2.01162e-14
-1.50505e-13
-4.69601e-14
-1.47887e-13
-2.98006e-13
-2.81291e-11
-2.79944e-11
-5.95658e-13
5.36223e-13
4.21393e-14
5.70251e-13
6.96741e-13
2.94504e-13
-1.01049e-13
1.44418e-11
1.07644e-11
-2.81145e-12
-1.80494e-12
-2.22088e-12
-1.37668e-12
-8.94657e-11
6.57401e-12
-1.21068e-12
2.78238e-12
-7.22663e-12
1.45656e-13
-2.25174e-13
-3.2154e-11
1.23969e-12
-3.55416e-11
-8.12249e-12
-4.60509e-11
8.25231e-11
6.55977e-11
8.70294e-13
0
-6.66585e-13
-1.47668e-11
1.50619e-11
-3.19116e-12
-1.45662e-12
3.57455e-12
-2.42546e-11
-2.94424e-11
-2.95689e-11
1.68151e-11
-1.38703e-11
-8.60965e-13
1.96939e-11
1.03247e-11
8.93539e-12
2.39247e-13
-1.2071e-12
4.52461e-13
5.43533e-13
-5.69071e-11
5.6521e-11
2.46753e-11
-2.47281e-11
2.97843e-13
-3.82932e-11
-7.65654e-13
3.83428e-11
1.88178e-13
-1.66852e-13
4.03107e-13
-2.61983e-13
-3.71625e-11
-5.32945e-14
3.75482e-11
0
-1.00036e-13
1.1809e-13
1.23011e-13
1.92884e-14
-8.20911e-14
-3.41318e-13
3.71376e-14
-5.02564e-14
1.48993e-13
8.63016e-12
2.00189e-15
4.34981e-11
-4.26201e-11
1.23883e-12
-2.08997e-12
3.72471e-13
1.76547e-12
-1.06768e-13
-3.95958e-11
1.01677e-11
-1.52877e-11
1.43159e-12
-2.89547e-12
5.27819e-13
1.06495e-13
6.67734e-13
6.2972e-13
0
-2.21058e-11
1.45381e-13
-4.22134e-11
9.81925e-11
-6.14475e-12
-3.05297e-11
-6.50985e-12
4.44318e-11
-5.9051e-11
1.48487e-11
1.09947e-11
1.51901e-11
1.15341e-13
-9.4093e-14
-3.12948e-11
-2.95128e-11
1.45374e-13
-6.93144e-13
4.5601e-11
4.00024e-11
2.76218e-12
-1.47386e-13
-1.93358e-13
1.1513e-11
1.38976e-11
2.4172e-11
4.437e-11
3.43233e-11
2.11311e-12
-2.23172e-12
1.3391e-12
-1.29977e-13
-1.96393e-13
-6.24222e-13
5.41649e-14
2.06971e-11
-4.32087e-12
-2.74364e-11
5.65288e-12
2.15629e-13
-4.99197e-11
-2.06253e-13
-1.00956e-12
-6.13013e-14
4.99449e-11
2.7267e-11
0
2.51904e-11
2.70984e-13
-2.47525e-11
-3.28998e-14
-5.58672e-13
-1.11249e-13
1.93411e-13
-1.45306e-13
2.98008e-13
2.14261e-11
-7.07599e-11
4.58864e-11
-8.74989e-13
8.21644e-14
-3.29993e-13
-6.70245e-11
6.60092e-11
8.72233e-13
-8.33593e-12
-1.72372e-11
-2.71272e-12
9.78279e-13
-7.24612e-11
-1.08784e-10
8.72001e-12
2.84359e-12
-9.83517e-11
8.83533e-11
-9.13434e-12
-1.45302e-13
6.95226e-13
3.91766e-11
7.26607e-14
2.89119e-11
2.89105e-13
-1.40098e-12
1.02905e-12
-6.1748e-11
7.80599e-12
-7.08324e-12
5.01464e-11
-2.43632e-11
1.40916e-11
1.08419e-11
5.66648e-12
7.16452e-12
1.70097e-12
8.55614e-11
-2.44101e-11
-1.47352e-13
5.6632e-13
-2.98137e-11
2.27626e-11
-2.94725e-13
-4.61545e-12
-1.10325e-12
-2.98441e-13
3.40668e-13
-5.24341e-13
5.70521e-11
-5.59407e-11
-9.57617e-11
9.78399e-11
-4.467e-13
-2.98011e-13
2.15408e-11
-3.07578e-11
-2.15919e-11
2.78826e-11
-3.30312e-14
-3.0775e-11
-2.99971e-11
3.42642e-11
3.06959e-11
-4.47031e-13
2.618e-14
-2.62676e-11
1.40528e-11
1.69469e-12
-6.40174e-11
2.54848e-11
4.94449e-11
2.43037e-11
2.35511e-11
-7.14451e-12
8.77575e-13
-1.48984e-12
-4.68409e-13
1.65271e-13
-4.71475e-13
3.27848e-14
-1.15052e-12
1.87002e-12
3.45462e-11
-6.92685e-12
8.95393e-11
-1.21102e-10
-1.04929e-10
8.05546e-13
1.62471e-12
-1.03634e-10
2.57425e-12
-9.67308e-14
-2.62335e-11
-3.7797e-12
-3.13553e-12
1.21608e-10
1.38091e-11
-1.88958e-12
2.89271e-13
5.3356e-11
-2.60598e-11
1.59705e-11
-8.24424e-12
8.67836e-12
4.83016e-14
3.17666e-11
1.78365e-11
1.44643e-13
-2.90731e-13
-4.56088e-11
6.13634e-11
-1.42246e-11
0
1.47405e-13
-1.17383e-13
-2.20373e-11
4.58151e-12
-1.94591e-11
6.53817e-11
5.20077e-11
1.20796e-12
-6.01964e-12
5.74418e-12
3.08234e-15
9.36354e-13
-1.52135e-12
-4.52727e-11
1.42991e-11
0
3.37665e-13
1.78475e-13
2.41308e-14
-1.34039e-13
-4.93213e-13
3.65081e-13
6.84226e-13
-3.48791e-13
-5.96255e-13
4.47369e-13
-1.81076e-13
-2.79877e-11
-2.10656e-11
2.72793e-11
2.09837e-11
-2.1452e-11
-4.8307e-11
-4.3177e-12
2.19267e-11
8.4918e-12
-5.5733e-13
1.19163e-12
-5.68564e-13
-2.03244e-13
-2.72805e-13
-3.07235e-13
5.3585e-13
-5.14753e-11
1.9672e-11
4.84091e-11
4.07766e-11
-4.32137e-14
1.15909e-12
-3.77701e-11
1.0608e-10
1.48688e-12
3.50995e-13
2.42048e-12
-3.24724e-12
-3.17671e-11
-6.11546e-12
-1.57604e-10
-1.8153e-11
-2.79754e-11
-2.91595e-11
-3.62467e-11
7.85927e-13
-5.62669e-11
1.4506e-13
-2.97403e-11
-6.4488e-12
-4.4856e-13
-3.57733e-11
5.80267e-13
1.45719e-13
4.30319e-11
-5.94528e-11
-4.80933e-12
-7.14039e-12
1.96333e-11
4.69612e-11
8.72614e-11
-4.53466e-11
1.18109e-12
-8.64556e-12
-6.36163e-13
3.01839e-13
-4.38368e-11
4.41793e-11
-3.34952e-13
-4.33482e-11
1.02384e-10
-5.95576e-11
0
5.13113e-11
2.61199e-11
5.27421e-12
3.77202e-13
-5.412e-11
2.08874e-11
2.37453e-11
-2.62719e-11
-1.33813e-12
3.43097e-12
-1.49254e-13
1.98474e-13
-1.43305e-13
-4.72181e-13
-1.4159e-13
-4.43121e-14
2.17046e-11
2.21144e-11
-2.25444e-11
-2.26903e-11
-7.75933e-12
-2.04221e-11
-1.07264e-11
9.93694e-12
8.89217e-14
2.16181e-13
1.09249e-13
-5.65501e-13
-9.11708e-13
-2.6119e-11
5.15516e-11
-1.08565e-11
8.34959e-11
-5.78388e-13
7.10544e-13
9.23959e-11
-5.66834e-14
5.07274e-12
1.79548e-13
4.44542e-13
1.4676e-13
-7.49308e-14
2.62572e-13
1.8121e-12
9.8343e-12
1.17086e-12
4.55618e-11
3.74648e-11
-3.92244e-11
-1.6539e-11
0
5.3419e-13
-8.38908e-13
-1.46326e-13
-1.46374e-13
3.99229e-11
3.28965e-11
2.73676e-13
4.73849e-11
-9.54233e-12
3.60049e-11
4.30009e-11
-1.43637e-13
-6.74754e-11
1.73417e-11
2.80636e-11
2.84688e-11
5.30614e-11
-1.13819e-10
6.08023e-11
-3.9154e-14
3.76463e-13
-9.45031e-13
4.26239e-11
1.34381e-12
2.98556e-13
4.72194e-13
3.28764e-13
3.21942e-13
-5.80745e-13
-1.37716e-13
-2.61194e-11
-2.56978e-11
2.65655e-11
2.56801e-11
0
7.76925e-13
2.74578e-13
-1.06664e-12
-1.03418e-13
9.11408e-14
3.71953e-13
-1.5899e-13
-3.98657e-13
0
1.209e-11
4.80429e-11
1.19551e-12
-2.29923e-13
1.07771e-12
-1.59528e-12
5.94631e-13
3.3873e-13
-8.26567e-14
0
-8.77481e-12
5.60066e-11
8.03056e-11
6.30906e-13
1.04461e-10
4.75682e-11
1.5316e-12
-3.03596e-13
9.00369e-11
-1.33922e-12
1.02187e-11
-2.62249e-11
-4.77371e-11
5.68274e-11
-6.81759e-12
-1.13929e-11
1.36009e-11
-1.38034e-10
2.04854e-11
-1.392e-11
2.95935e-13
9.66884e-13
-1.57359e-11
2.33805e-11
-7.40493e-12
0
3.71087e-13
7.80748e-11
-8.32468e-12
7.56077e-12
3.95709e-11
3.85367e-11
2.85724e-11
3.71216e-13
0
1.49303e-13
-1.65611e-13
-4.08112e-11
3.92293e-11
3.21612e-12
-4.4802e-11
4.35107e-11
9.7232e-13
-1.79625e-14
2.8228e-11
-3.55149e-11
2.95552e-12
3.83556e-11
-3.09592e-13
1.56722e-14
-5.78635e-14
5.68847e-12
-2.53582e-13
-5.35002e-12
0
2.12895e-11
2.20938e-11
9.23733e-13
-3.71776e-13
-7.89791e-13
1.96607e-14
4.95823e-11
3.00393e-13
-4.93518e-11
1.48878e-13
0
1.25791e-12
-1.60789e-13
-2.3707e-12
1.18661e-12
5.75964e-13
-2.18902e-13
3.49121e-13
-4.98504e-13
7.44305e-12
-1.48547e-11
7.72799e-11
-6.29267e-11
8.81043e-13
3.16755e-13
-2.51617e-13
-2.19272e-11
4.0385e-11
-3.92186e-11
0
-4.22607e-11
-8.38856e-11
4.66228e-11
-4.27799e-14
-9.18068e-13
3.94168e-13
4.57272e-11
2.69286e-11
1.4545e-12
2.72936e-11
-3.95813e-11
-2.94502e-11
-1.30053e-11
6.23741e-11
-5.79605e-11
4.01445e-13
-4.58603e-11
-2.28732e-11
-1.42502e-13
9.04626e-12
7.85744e-12
-1.48285e-11
6.56364e-13
-7.40489e-13
2.20603e-12
5.45647e-11
2.20932e-12
-8.22568e-11
5.40834e-11
-1.7946e-11
1.48309e-13
-4.69869e-11
6.53098e-11
2.43931e-11
1.04371e-12
3.93083e-13
-5.27111e-13
-2.0444e-11
-4.19292e-11
-5.78669e-12
-2.97167e-13
-6.83511e-11
8.26798e-11
-1.18163e-10
4.92407e-13
-4.81934e-12
-1.09114e-12
9.93067e-11
4.04144e-11
-6.68903e-12
-5.62735e-11
-9.2483e-11
4.10052e-11
1.60565e-13
-5.35958e-11
5.40832e-11
1.20305e-13
-6.5409e-13
-5.25712e-13
6.10554e-12
2.97743e-13
2.16521e-13
2.41232e-13
2.44582e-11
-2.10159e-13
-2.00522e-13
7.8284e-14
-2.43208e-11
-5.96924e-13
-7.44531e-13
7.4233e-13
7.57343e-13
-1.90983e-13
-1.62007e-13
-3.25735e-14
2.75741e-11
2.21793e-11
-3.87115e-12
-2.25187e-11
-2.33091e-11
2.4479e-11
1.40449e-13
-4.75177e-11
-3.49507e-11
2.30957e-11
3.48899e-12
-2.5068e-14
5.94961e-11
-5.11248e-12
-3.32371e-11
1.4814e-13
1.87951e-11
9.04265e-13
-1.84616e-12
1.17603e-12
-5.88236e-13
2.93845e-13
5.58444e-11
-5.63042e-11
7.55948e-12
-1.47983e-13
1.74803e-11
-1.58928e-11
-5.13318e-13
1.19696e-12
-8.87228e-13
2.94639e-13
4.24939e-11
-1.88778e-11
-5.9202e-13
1.1984e-11
-4.6851e-12
-1.49522e-11
-7.21379e-13
-1.04512e-11
3.15674e-11
-7.321e-12
1.58595e-11
-2.32422e-12
-7.39871e-13
2.17498e-11
-7.78434e-12
-1.39222e-11
-4.88124e-14
2.25221e-11
-4.33707e-11
2.49182e-11
-1.75712e-11
-2.55681e-11
-1.53901e-11
0
-3.51865e-11
8.10747e-12
-4.70073e-11
-8.15643e-13
2.45282e-11
1.57143e-11
-1.74319e-11
-1.05492e-11
3.27141e-11
2.05946e-11
-6.38903e-12
-2.77393e-11
1.4896e-13
-1.20005e-12
9.31956e-13
-3.61964e-14
-4.53321e-11
-1.39609e-11
-2.13392e-11
-1.48373e-13
-7.70104e-12
-4.28419e-11
2.14982e-11
-5.81676e-13
4.65506e-13
2.48323e-11
-4.04146e-13
-2.4318e-11
0
4.45377e-13
3.96143e-13
-3.49843e-13
2.45432e-11
6.8327e-14
-2.50762e-11
-2.83018e-13
3.46064e-13
6.53503e-14
0
4.44611e-13
1.75253e-13
5.7683e-13
4.08328e-13
8.76147e-12
-1.53644e-13
-2.91822e-11
2.89244e-13
1.9817e-11
-2.96402e-13
4.79905e-11
2.15788e-11
-2.65719e-11
-6.31408e-13
-2.5991e-13
-1.2586e-12
1.80509e-13
1.13916e-12
-4.46556e-14
1.48118e-13
1.76121e-11
-6.39221e-12
-6.55129e-13
2.33531e-11
2.68648e-13
-2.18865e-13
2.73204e-11
2.84094e-11
-2.54986e-11
-2.60502e-11
3.40217e-11
6.78306e-13
-3.39586e-11
-3.67891e-12
-2.64452e-13
3.28522e-12
2.45282e-11
-3.53241e-14
-2.45038e-11
-1.4792e-13
0
3.40155e-11
6.87967e-14
-3.42713e-11
8.50351e-14
-3.31162e-13
2.67271e-11
-5.07363e-13
-2.93967e-11
-2.07046e-12
-2.69187e-11
-3.91255e-13
2.69844e-11
3.59859e-13
3.56808e-13
-6.13878e-13
-1.16568e-12
-1.38294e-13
8.36491e-13
0
-2.94376e-11
-2.96848e-11
2.07467e-11
-2.97118e-13
-2.11903e-11
6.41468e-13
-2.31063e-11
3.23051e-14
2.28598e-11
-2.95839e-13
-5.92027e-13
-5.15473e-13
2.04582e-11
-1.89793e-13
-4.32279e-11
-2.28303e-13
2.33111e-11
3.56448e-15
-2.02215e-11
-2.02767e-11
0
-3.4087e-14
1.71812e-13
-9.49666e-14
-1.15547e-13
2.4817e-11
-3.30151e-13
-2.45737e-11
1.30846e-13
-1.4812e-13
-6.07605e-12
2.26377e-11
2.8626e-11
-3.14531e-14
-2.16714e-13
1.79612e-14
3.6917e-13
-9.63062e-14
4.62847e-14
1.482e-13
2.96112e-13
-4.43344e-14
-2.6273e-11
7.28075e-12
2.6283e-11
-7.07217e-12
-2.60838e-13
2.34574e-11
-1.75199e-13
-2.33921e-11
-1.18405e-12
-3.42891e-11
-3.27594e-11
6.00512e-13
-5.45583e-13
8.86844e-14
8.50774e-13
6.18234e-13
1.81372e-11
1.80564e-11
-5.91781e-13
-3.80257e-13
-1.90893e-14
7.07258e-15
-1.0709e-13
-1.62056e-13
-3.16789e-14
5.25696e-14
2.2093e-11
2.17475e-11
9.76169e-12
5.37069e-13
-9.69997e-12
-1.08248e-12
1.6217e-13
4.61918e-13
-4.13004e-13
1.56998e-13
-7.43766e-14
-1.47892e-13
2.95779e-13
8.33771e-14
-1.64441e-13
1.16444e-13
-1.97276e-11
-4.52261e-13
2.00421e-11
-1.65824e-13
-5.06228e-12
-4.87976e-12
3.40143e-12
-2.25311e-11
-2.96718e-12
2.35211e-11
-2.13442e-11
-2.13545e-13
2.06624e-11
3.59341e-14
3.20607e-13
-1.47868e-13
-2.14458e-11
-2.17633e-11
-4.73799e-13
1.01257e-12
6.06522e-13
2.43614e-11
2.14033e-11
-4.81298e-11
-2.12514e-11
2.32178e-11
0
-6.11426e-13
1.92666e-14
7.52073e-13
4.50989e-14
-2.2761e-13
2.61846e-13
-3.12747e-14
-1.34476e-13
0
0
-5.52456e-14
-4.66339e-13
-2.26494e-11
4.10454e-13
2.31487e-11
-6.44958e-14
-3.42312e-13
1.13803e-13
0
8.58665e-12
-2.26305e-11
-1.02752e-11
2.23625e-11
2.86269e-11
2.03636e-11
-2.8425e-11
-2.15738e-11
-6.4293e-14
1.4804e-13
5.91907e-13
7.84946e-12
1.53261e-13
-7.40965e-12
-2.21033e-11
3.18844e-13
5.21586e-11
-5.35426e-13
-3.01089e-11
0
0
2.71149e-13
1.67085e-14
3.10854e-14
-2.3153e-13
-2.79468e-13
5.10439e-13
6.45453e-14
-5.1404e-13
0
-2.35192e-11
-2.40891e-11
-1.02041e-12
-4.26505e-13
5.1214e-13
4.96406e-13
-2.69092e-11
-1.10819e-13
2.68006e-11
0
1.47897e-13
2.98744e-11
2.66137e-13
-2.88484e-11
-1.64523e-13
-1.50274e-12
-1.67589e-13
4.38918e-13
-2.04133e-14
-1.47881e-13
-4.43663e-13
5.29256e-14
2.32365e-13
5.08608e-13
2.46712e-11
-5.21428e-13
-2.47039e-11
-3.03519e-11
-2.7307e-11
2.51373e-12
1.18312e-11
-9.05939e-12
-2.30519e-13
2.11778e-11
4.08264e-13
9.93738e-14
-5.87538e-13
1.16767e-13
-5.16323e-14
0
-2.46988e-11
-5.23801e-11
-2.40305e-13
2.77358e-11
4.07173e-13
-8.83538e-14
-2.70327e-13
-2.89077e-11
-1.49068e-14
2.88349e-11
-1.47913e-13
-2.96861e-11
-2.60824e-11
2.95776e-11
2.56074e-11
2.1828e-13
2.42957e-13
-6.38351e-13
2.57364e-13
5.91577e-13
-2.30792e-11
-2.28538e-11
1.1924e-13
-1.39011e-13
-1.14146e-13
-3.18064e-14
-2.69999e-11
3.01732e-14
2.70292e-11
0
1.47969e-13
-1.33588e-13
2.87526e-13
5.16652e-14
-6.69721e-13
-1.98209e-13
5.67355e-13
8.18525e-14
-2.8405e-13
-2.95913e-13
-2.35209e-11
-7.41481e-13
2.30678e-11
1.44463e-13
2.64437e-18
-2.40494e-13
3.55826e-13
1.54856e-13
-9.50576e-14
0
-2.95833e-13
4.42027e-14
-1.83114e-12
-2.6882e-13
2.24866e-12
-1.19647e-13
1.57229e-13
3.46454e-14
-3.26041e-14
1.47904e-13
2.1741e-11
6.99102e-14
-2.17314e-11
2.86522e-11
5.64004e-13
-3.04908e-12
-1.73613e-12
-2.55867e-11
2.83107e-11
2.73589e-11
0
-2.20079e-11
-8.22128e-14
2.21582e-11
5.30003e-13
8.92895e-14
-2.64359e-11
1.18179e-11
2.57486e-11