/*--------------------------------*- C++ -*----------------------------------*\
  =========                 |
  \\      /  F ield         | OpenFOAM: The Open Source CFD Toolbox
   \\    /   O peration     | Website:  https://openfoam.org
    \\  /    A nd           | Version:  10
     \\/     M anipulation  |
\*---------------------------------------------------------------------------*/
FoamFile
{
    format      ascii;
    class       volScalarField;
    location    "1.2";
    object      gradTz;
}
// * * * * * * * * * * * * * * * * * * * * * * * * * * * * * * * * * * * * * //

dimensions      [0 -1 0 1 0 0 0];

internalField   nonuniform List<scalar> 
46825
(
1.49086e-13
0
-1.48932e-13
3.58406e-11
4.45697e-13
-1.88679e-11
1.48719e-12
3.41067e-11
2.98155e-13
2.95217e-11
5.96213e-13
-1.4893e-13
1.48581e-13
-3.65617e-11
2.65762e-11
1.47648e-13
-4.44079e-13
3.74435e-11
-2.97867e-13
-7.45312e-13
-3.05254e-11
0
-6.6324e-11
-3.87788e-11
-2.90893e-13
-5.81788e-13
-1.46336e-13
-2.55552e-11
-7.42861e-13
-5.95649e-13
-4.46072e-13
0
-1.25845e-11
4.54939e-11
9.26246e-12
1.01174e-11
-5.7587e-13
-5.50202e-11
0
-5.94772e-13
2.98586e-11
4.42931e-13
-2.37093e-11
-2.8502e-13
1.06922e-11
-1.06922e-11
-1.42508e-13
-5.16361e-11
1.62405e-12
-1.18838e-12
-2.94165e-11
1.4767e-13
-5.38318e-11
0
9.84946e-12
-4.47444e-11
2.82224e-11
0
1.47664e-13
2.97125e-13
-1.04116e-12
1.33271e-12
-1.33254e-11
-3.81752e-11
1.38277e-11
-1.85318e-12
1.32529e-11
9.95721e-12
4.44217e-13
-8.92385e-13
-4.46889e-13
0
-2.95663e-13
-1.85976e-11
-2.10991e-11
-2.91023e-13
-2.92875e-13
4.10974e-11
-4.84591e-11
2.97917e-13
-6.85861e-12
-1.48984e-13
2.3189e-11
-1.48082e-13
-1.47687e-12
2.92421e-11
4.44253e-13
-3.2406e-11
0
5.96405e-13
0
2.98193e-13
1.48959e-13
7.43695e-13
-1.04007e-12
1.48584e-13
5.94981e-13
1.19174e-12
0
-3.14656e-11
4.11784e-11
-1.49346e-13
3.76326e-11
3.65628e-11
-2.98375e-13
-1.89467e-11
4.73078e-11
6.1229e-12
-1.49359e-13
1.49216e-13
-3.95687e-11
1.12218e-13
3.71196e-14
2.69197e-12
1.10268e-11
1.69383e-12
1.44593e-14
4.68954e-11
-3.74075e-13
-7.46658e-13
-2.59762e-11
8.73781e-14
5.66145e-12
-3.91469e-11
2.95805e-13
-5.58838e-11
2.95934e-13
1.99041e-11
-4.95784e-13
-2.98595e-13
3.80444e-11
1.17425e-11
0
8.49059e-11
2.90624e-13
1.16147e-12
-3.98945e-11
-4.77271e-11
-9.14044e-12
3.78959e-11
3.05774e-11
1.93553e-11
7.71976e-11
-8.71846e-13
-2.87475e-13
-1.0048e-11
-1.15339e-12
-7.71163e-11
-4.51016e-13
-4.90723e-11
-2.95362e-11
2.23978e-11
-2.74987e-11
6.2431e-11
-2.00963e-11
-4.70146e-11
-1.44002e-12
0
7.48602e-13
-1.49166e-13
-8.95413e-13
-6.17823e-11
-1.27291e-11
-3.75812e-11
-5.76776e-13
-2.30407e-12
-1.87983e-11
5.55056e-11
1.12046e-11
-4.47681e-13
-4.4803e-13
4.64316e-12
-2.08062e-11
-1.70999e-11
8.79877e-13
-3.89786e-11
-6.10872e-11
4.17289e-11
2.05638e-11
2.74781e-11
1.4936e-13
-1.12246e-13
7.58123e-12
1.04068e-11
5.09287e-13
-1.05334e-11
-1.10019e-11
-1.16656e-12
1.16366e-11
8.96163e-13
0
-4.48054e-13
1.49332e-13
8.9537e-13
1.49176e-13
3.35653e-11
-1.49238e-13
4.48038e-13
0
1.49229e-13
4.4749e-13
-3.37873e-11
8.11806e-13
-7.8731e-14
-2.9839e-13
2.78238e-11
1.90376e-11
-2.82647e-11
1.08948e-12
-2.89431e-11
-5.67741e-11
0
0
4.66554e-11
1.04914e-11
-4.49882e-12
-8.05342e-11
-7.85525e-11
0
-2.82036e-13
2.35694e-13
-2.98736e-13
-2.6518e-10
1.93132e-10
2.5297e-10
3.07979e-10
2.37358e-10
2.42038e-10
-6.00634e-13
-3.44019e-11
4.01958e-12
-1.34552e-11
2.6971e-10
6.00242e-06
5.49162e-07
5.80026e-07
2.83395e-07
1.36715e-06
1.08424e-11
2.96341e-13
-9.77858e-14
-2.997e-13
1.68622e-10
5.45148e-07
-3.03365e-05
-3.10736e-05
-2.72094e-05
1.79902e-06
4.77994e-11
-2.96245e-11
-3.02899e-11
5.84738e-11
2.68562e-10
5.89189e-07
-3.10559e-05
-3.18527e-05
-2.77498e-05
1.81945e-06
7.78307e-11
3.09355e-11
-5.52865e-14
-1.37695e-11
2.32826e-10
8.92536e-07
-2.71034e-05
-2.77391e-05
-2.42765e-05
1.70953e-06
7.54785e-12
7.55037e-14
2.66773e-13
8.9595e-13
2.30704e-10
5.23494e-07
1.79078e-06
1.8182e-06
1.70961e-06
-1.039e-08
5.68255e-11
-1.45278e-12
6.67752e-12
2.98392e-13
5.13609e-11
4.51867e-11
-7.74393e-11
-9.9931e-12
6.94412e-11
5.65278e-11
2.99101e-13
-3.90344e-13
-4.47513e-13
-3.18695e-11
-1.16188e-13
-1.10997e-13
7.00499e-13
4.97086e-13
-3.96739e-13
2.62319e-11
2.01774e-13
3.1926e-11
-4.13687e-11
7.0537e-14
-3.81401e-12
4.11925e-11
4.3485e-11
1.39472e-12
-1.15855e-11
1.34265e-13
3.28095e-11
1.48854e-13
3.92458e-11
2.97015e-13
-7.86225e-13
-2.63129e-10
-4.01278e-10
-3.19617e-10
-2.37756e-10
3.62095e-11
6.05535e-11
-2.13993e-13
-1.36345e-13
-2.95367e-12
4.22265e-08
-4.53269e-05
-4.4679e-05
-4.39651e-05
-4.46046e-05
-4.84679e-05
-1.95906e-09
-3.00163e-11
-3.7003e-11
-2.82528e-10
-4.91348e-05
-224.942
-292.726
-293.355
-291.838
-2.16447
1.00998e-07
-6.77714e-11
1.11288e-12
-3.57145e-10
-4.45409e-05
-292.721
-403.621
-405.096
-401.369
-3.84437
-2.13502e-08
4.84526e-11
-2.99493e-11
-3.6398e-10
-4.43058e-05
-293.332
-405.081
-406.644
-402.749
-3.8603
4.59541e-09
4.28701e-11
9.28223e-13
-3.60169e-10
-4.45763e-05
-290.832
-401.226
-402.738
-398.87
-3.82717
-7.33648e-08
2.10836e-13
-4.00899e-13
-6.94419e-11
-4.83675e-05
-0.681339
-3.83534
-3.85985
-3.82706
-0.610143
3.53752e-07
-2.83442e-11
-2.76555e-11
2.96711e-13
-2.04118e-09
1.46683e-07
-1.26396e-08
2.98561e-09
-6.67055e-08
3.55909e-07
3.65834e-11
-3.32521e-11
-1.33927e-12
5.60845e-13
-3.03729e-11
7.63656e-13
8.03791e-12
-3.24222e-11
1.24668e-12
3.75171e-12
-1.72114e-13
1.3395e-11
0
5.15816e-12
3.37843e-11
2.29756e-12
3.08002e-12
-2.47611e-11
-1.65183e-11
-2.46839e-14
-1.14537e-12
2.97342e-13
9.30107e-11
2.96347e-13
6.72375e-11
1.079e-08
2.38706e-08
2.39308e-08
2.27019e-08
-9.58365e-10
-6.07448e-11
5.85455e-14
1.57726e-13
6.80236e-12
-1.1951e-08
-0.00508001
0.0324932
0.032892
0.0320095
9.31881e-05
-4.20961e-10
3.49145e-11
-1.98912e-12
1.04115e-08
0.0158841
1.70298e-05
-3.18554e-11
3.5941e-12
2.38018e-08
0.0325094
4.6178e-05
7.34908e-11
3.32838e-11
2.3802e-08
0.0327781
4.72169e-05
5.85018e-12
-2.77677e-11
2.26829e-08
0.032006
4.37512e-05
-2.54775e-11
-3.86011e-14
-4.35574e-10
9.59068e-05
-8.45062e-07
-1.29124e-11
-5.12911e-11
-2.96158e-13
-7.5109e-10
2.98441e-05
4.66427e-05
4.73474e-05
4.36932e-05
-8.42077e-07
-3.3372e-11
2.6969e-13
4.4586e-13
4.73913e-11
-3.71297e-11
1.7677e-12
3.8037e-12
3.98075e-12
2.32118e-12
-6.5067e-11
-2.83168e-11
2.91355e-11
-2.76517e-11
-2.86971e-11
1.09025e-11
-4.06787e-11
-4.08174e-11
6.98483e-13
-7.14146e-11
-2.62067e-13
-6.09425e-11
0
4.25943e-11
-2.97272e-13
-6.03698e-11
2.26309e-09
5.61895e-09
5.57036e-09
5.14611e-09
-2.48302e-10
6.43026e-11
-6.03794e-14
-4.40426e-12
1.36202e-12
-2.29466e-09
0.0007869
0.00106418
0.00106637
0.00106244
6.83812e-07
-5.58477e-10
2.83181e-11
3.7218e-11
2.04429e-09
0.000485067
6.85053e-06
3.12175e-11
8.98347e-13
5.35595e-09
0.00106564
3.43225e-06
9.99342e-13
3.16552e-11
5.50568e-09
0.00106633
3.17395e-06
-4.0785e-11
-6.1876e-13
5.01311e-09
0.00106288
2.65889e-06
1.02412e-12
-4.42564e-13
-3.34192e-11
2.36612e-06
-5.5526e-08
2.19633e-12
2.77579e-11
-2.97733e-13
-1.81169e-10
1.75563e-06
3.0098e-06
3.17464e-06
2.65846e-06
-6.89576e-08
-5.82795e-11
3.24305e-11
8.92018e-13
-4.5297e-13
6.91851e-11
4.91056e-13
-4.65422e-11
1.21687e-13
3.42851e-13
3.03994e-12
8.56854e-14
-1.33827e-11
1.48749e-13
7.42517e-11
-3.47027e-11
-1.58462e-13
6.5057e-13
-1.35515e-13
-3.4752e-13
-3.43603e-11
3.29272e-11
-1.48796e-13
-3.6511e-11
5.5685e-11
4.3523e-12
7.05064e-10
1.47922e-09
1.49485e-09
1.4691e-09
-3.06023e-11
-6.29525e-11
3.70087e-13
-3.6454e-11
3.79752e-12
-7.39268e-09
0.000192938
0.000361655
0.000241533
0.000360886
-3.37778e-06
-2.79146e-11
4.15916e-13
1.06761e-12
5.79055e-10
0.000190196
4.42284e-07
3.48024e-11
-2.89073e-11
1.40618e-09
0.000362173
5.52619e-07
-4.09612e-11
1.73172e-13
1.41474e-09
0.000361458
4.004e-07
-3.33363e-11
3.09643e-11
1.4155e-09
0.00036064
-1.49149e-07
2.71883e-11
1.96902e-13
-9.35603e-11
2.97899e-07
1.9381e-08
1.32017e-11
5.12857e-11
5.96655e-13
2.305e-11
2.59122e-07
3.42896e-07
4.44097e-07
3.61333e-07
-1.2051e-08
5.93234e-11
-4.19049e-13
1.48761e-13
-4.77724e-11
3.30027e-11
1.80249e-13
-4.60564e-11
-3.0397e-13
-4.45867e-13
3.83717e-11
2.86902e-11
-2.97578e-11
6.5929e-11
2.91243e-11
-4.50138e-11
3.66942e-11
3.16619e-11
5.2211e-14
7.80187e-11
6.57002e-13
2.79902e-11
-5.95465e-13
-4.19815e-11
-6.16842e-11
1.67354e-12
1.01624e-10
3.554e-10
3.00346e-10
3.0671e-10
-4.86963e-11
-1.49282e-12
-7.95514e-13
-3.11427e-11
2.70682e-14
6.42746e-09
9.68892e-05
0.000363391
0.000123145
0.000242854
-6.12251e-06
5.5273e-12
4.27677e-13
-7.29436e-12
1.40833e-10
3.13691e-06
-4.80885e-08
-4.16748e-13
-2.69789e-13
4.15953e-10
0.000363043
-1.41421e-07
-2.94757e-13
2.83192e-11
4.85749e-10
0.000123151
-1.57206e-07
-2.97228e-11
4.94018e-13
2.87955e-10
0.000362264
-3.41884e-06
-4.89464e-11
1.25093e-13
-4.375e-11
-5.5333e-07
-1.73069e-07
-1.02457e-12
5.16109e-14
-5.97294e-13
1.921e-11
-1.43853e-07
5.67722e-08
-1.13477e-07
-4.55716e-08
-4.28085e-09
-3.01287e-13
1.73312e-13
2.97672e-13
2.51992e-14
-1.0657e-11
-2.60336e-13
4.05563e-11
2.57346e-13
-5.35068e-13
-6.80171e-12
3.04219e-11
-1.48862e-13
-4.46642e-13
-4.55804e-11
5.4131e-14
-4.36939e-13
2.87373e-11
-9.49142e-13
6.67336e-15
3.46676e-11
-3.29613e-11
1.48922e-13
-4.38883e-13
5.66327e-12
-1.70503e-12
-7.72576e-10
-2.40184e-09
-2.38432e-09
-2.14148e-09
8.2944e-11
2.09035e-12
2.52694e-13
3.64894e-11
-5.67983e-11
4.55154e-09
-0.000194202
-0.000107565
-0.000227491
1.14592e-05
-5.88775e-06
7.9833e-11
-8.40127e-13
2.67645e-11
-7.42207e-10
-0.000196955
-1.62909e-06
-5.96119e-13
2.85619e-11
-2.4085e-09
-0.000107583
-2.93884e-06
-1.44113e-12
-1.09644e-12
-2.55449e-09
-0.000108063
-3.00764e-06
9.38447e-14
-3.48497e-11
-2.11023e-09
-0.000106816
-1.30716e-07
-3.81512e-13
1.51495e-13
1.07307e-11
-2.93633e-06
-3.45697e-07
-7.59177e-14
-4.85242e-14
-5.52536e-11
-1.23431e-12
-1.53461e-06
-3.01369e-06
-3.00037e-06
-2.58464e-06
4.47843e-08
-6.10715e-13
-6.5679e-13
-1.48893e-13
3.15599e-11
3.20213e-12
-4.11849e-11
4.38816e-11
6.4125e-13
2.98979e-13
-4.72722e-11
-4.09642e-13
1.48915e-13
-8.48854e-12
-4.27189e-11
-8.36293e-14
-3.63213e-11
-3.17448e-11
-1.03482e-13
3.35707e-12
-5.4545e-13
-2.75303e-13
5.95841e-13
3.77997e-11
3.27886e-12
-1.15876e-12
-2.16323e-09
-4.47516e-09
-4.26354e-09
-4.59589e-09
2.29223e-10
-1.4929e-12
1.08863e-12
3.13512e-11
5.63159e-11
5.77018e-09
-0.0103052
-0.024442
-0.0248341
-0.0242876
-7.0637e-05
6.36844e-10
3.99861e-13
-2.87868e-11
-2.19323e-09
-0.0104939
-2.19696e-05
2.82309e-11
-5.95333e-14
-4.40601e-09
-0.0244419
-3.73386e-05
-1.74339e-13
-2.91276e-11
-4.26395e-09
-0.0248335
-3.78871e-05
2.90821e-11
-3.05111e-11
-4.50629e-09
-0.0240491
-3.42228e-05
4.86034e-11
3.85689e-13
1.0157e-10
-6.07168e-05
2.81052e-07
2.29273e-13
-2.8602e-14
5.61477e-11
7.43923e-10
-2.19922e-05
-3.74105e-05
-3.79034e-05
-3.46199e-05
2.89949e-07
-6.02323e-13
9.20532e-13
0
2.60776e-13
-2.84524e-11
6.27607e-13
3.60991e-13
-1.00886e-11
-1.51959e-13
-5.94475e-13
-3.06604e-11
7.44784e-13
-2.97885e-13
6.57173e-13
-2.85292e-14
-4.51242e-13
1.59988e-11
3.04254e-11
1.29328e-13
3.2453e-11
-2.93418e-11
-1.63864e-12
-1.08348e-12
-7.00507e-11
-1.66579e-13
1.76111e-12
-1.37989e-10
-2.88595e-11
-1.37763e-10
-1.85265e-12
1.79157e-12
-5.32669e-13
-2.35878e-13
-7.6413e-11
-2.23712e-08
0.000216339
0.000203603
0.000204255
0.000204221
0.000201774
5.78652e-10
4.53974e-13
-2.82086e-11
-1.39405e-10
0.00021518
-1.72672e-07
-3.3304e-11
3.87934e-11
-1.06498e-10
0.000203673
-2.10031e-07
1.84973e-13
3.51342e-13
-7.71504e-11
0.00020455
-2.10748e-07
-6.64725e-13
3.3613e-11
-6.78471e-11
0.000204755
-2.06156e-07
-3.36069e-11
4.34702e-11
-2.76803e-12
0.000202225
1.84098e-08
-3.0135e-11
2.13937e-13
-1.19412e-12
5.22671e-10
-1.72719e-07
-2.10099e-07
-2.10828e-07
-2.06548e-07
1.83198e-08
5.63085e-11
1.65746e-13
2.97907e-13
9.84447e-13
1.98638e-13
4.02196e-11
7.94407e-13
-1.41086e-12
-1.07001e-12
4.75356e-11
-3.80662e-11
1.48964e-13
-2.96398e-11
-2.4754e-11
1.911e-13
-8.05891e-14
-2.84662e-11
1.79822e-11
-4.34676e-11
3.28799e-13
-1.19543e-13
0
-3.79532e-11
6.67829e-11
1.44116e-12
-6.1477e-11
6.12289e-11
-5.80529e-11
5.70508e-11
5.66356e-13
-7.46598e-11
-6.1276e-14
-3.96239e-14
7.64441e-11
6.11983e-13
-5.79988e-13
1.17621e-12
-8.24601e-12
1.1803e-10
-2.56116e-13
1.11495e-11
-6.16619e-14
-6.416e-13
5.97182e-11
-1.30513e-10
1.56915e-12
-2.80735e-11
-1.61185e-13
2.92952e-13
-2.3523e-11
-9.96473e-13
-5.57565e-13
-1.38156e-13
5.86377e-13
-1.18978e-10
-1.29474e-12
1.45675e-13
3.01797e-11
6.40713e-11
2.34885e-12
1.4158e-12
2.96919e-11
-2.90515e-13
-2.48994e-13
7.50758e-13
-9.05959e-12
-4.2595e-11
2.98974e-11
8.95918e-13
-2.44085e-11
-1.65341e-13
8.11598e-11
6.12589e-11
7.57589e-11
2.63408e-11
-5.57383e-11
-1.44196e-12
3.00869e-11
8.8905e-14
-3.30363e-11
2.55742e-13
2.94054e-11
3.73833e-11
4.52928e-14
1.777e-12
2.69504e-13
-1.04268e-12
-5.95738e-13
-2.24331e-13
-5.6827e-15
-4.52129e-13
-5.89513e-11
-3.04063e-11
8.11229e-13
-2.5509e-12
6.75458e-11
1.19154e-12
7.85953e-13
6.29137e-11
-2.45384e-13
-6.05866e-11
2.9284e-13
8.79252e-13
-2.92454e-13
-4.60025e-13
7.25803e-11
3.92468e-11
2.26718e-13
1.65731e-13
-2.17956e-10
1.24148e-12
-2.41268e-12
5.90816e-13
-1.76641e-12
1.41473e-12
1.65027e-11
8.53354e-14
-4.41149e-14
-1.17076e-12
3.05925e-10
-6.25952e-11
5.50933e-11
-7.1052e-11
2.92826e-13
-1.09998e-10
-2.89047e-13
2.2681e-13
-5.86474e-14
-2.93069e-13
-1.77244e-12
7.7036e-11
-4.34719e-14
1.97905e-13
-6.40458e-11
-1.1776e-12
1.32997e-12
6.47779e-11
-4.3995e-11
-3.16143e-13
-2.24266e-12
5.94773e-11
3.0033e-11
3.32133e-11
2.09071e-12
-3.47057e-12
-1.33878e-12
3.0163e-13
-2.23506e-13
-9.68176e-11
-2.62757e-11
-3.01411e-13
-2.34658e-13
-1.48933e-13
-9.07738e-13
3.99152e-13
3.83381e-13
-6.155e-13
-6.14373e-13
-3.69241e-11
3.44611e-11
4.09383e-11
5.95761e-13
-4.02105e-12
6.69108e-11
3.86963e-13
6.20822e-13
6.85527e-11
-1.79629e-11
1.55967e-11
6.22938e-13
3.65918e-14
3.39565e-11
2.71297e-13
-6.32108e-11
-2.9957e-13
6.61556e-11
-5.53568e-11
5.86273e-13
-2.92488e-13
7.9387e-13
1.19482e-12
-3.6234e-13
-4.27473e-11
-6.5795e-13
6.12329e-13
-4.45416e-13
-1.18658e-13
0
-2.12011e-11
1.13649e-13
-5.44987e-12
-2.5442e-13
3.3033e-12
5.85425e-13
2.15574e-12
8.77611e-11
-7.3747e-14
-5.65838e-14
2.92872e-13
-1.33571e-12
8.58627e-14
-2.73741e-14
4.4178e-11
-5.86243e-13
5.9099e-13
-7.72401e-11
-7.33758e-14
3.14381e-13
-2.92489e-13
1.61952e-10
-1.49201e-12
-2.98237e-11
2.77781e-13
-3.57649e-13
2.94472e-13
-5.97296e-11
7.04522e-11
-6.13827e-11
-2.38955e-12
-1.30939e-12
-3.19219e-13
2.90861e-13
5.15278e-13
2.12999e-11
4.95564e-11
0
-2.72394e-11
-3.08282e-11
-8.38066e-14
3.31168e-11
-3.54143e-11
-2.95576e-11
1.713e-11
1.46856e-13
-1.25504e-12
8.95148e-14
0
2.97866e-13
-2.74444e-13
-6.31573e-14
4.0351e-13
1.25297e-11
-1.13928e-13
-2.4612e-12
-3.06322e-11
-3.79961e-11
2.90429e-11
2.98845e-11
5.96263e-13
5.31844e-13
-5.85387e-13
5.6226e-11
-5.8617e-13
8.77348e-13
-3.98616e-14
-1.31412e-11
-6.17277e-11
-3.02751e-11
7.23921e-11
1.83689e-12
-3.96062e-13
-1.18096e-10
1.6547e-11
0
1.3003e-10
-5.47738e-11
1.35922e-13
-2.13361e-13
-6.73181e-11
2.38139e-12
7.58686e-12
-2.16681e-11
3.14995e-11
-7.2038e-11
-1.38196e-10
-5.57418e-13
2.72443e-13
1.14347e-13
2.93075e-13
-5.90961e-13
1.812e-13
-3.91453e-13
2.9755e-11
5.84888e-13
-1.71366e-10
-2.89918e-13
-3.08971e-11
2.10707e-13
6.80449e-11
1.30433e-10
-8.03038e-11
-1.68203e-13
-3.14337e-12
1.34394e-11
-7.84727e-11
-8.0599e-11
1.8707e-13
-6.87521e-13
8.4033e-11
-4.97216e-11
0
-5.56412e-13
7.44655e-13
5.20026e-11
9.12924e-13
1.31504e-13
-4.15726e-11
-1.01493e-13
3.77774e-11
-3.35986e-11
4.20791e-11
-5.95741e-13
3.87245e-12
6.57333e-13
5.80618e-13
-3.51679e-11
-4.00471e-11
3.44235e-13
-1.59764e-11
-2.69955e-13
4.35202e-13
-3.33647e-11
3.18584e-13
-2.98082e-13
1.4445e-13
5.35549e-11
1.757e-12
7.18026e-11
2.92441e-13
-3.90219e-13
1.22416e-11
9.71647e-15
4.26468e-11
-7.2086e-11
2.6321e-11
-1.13534e-10
5.54019e-13
0
5.88424e-13
3.57489e-12
5.41241e-11
-2.53475e-13
-2.91689e-12
6.76005e-11
1.61127e-10
-3.208e-11
-1.12496e-13
9.53133e-14
7.057e-11
-1.31914e-13
-8.26173e-13
3.08283e-14
-4.43633e-11
8.79208e-13
1.70031e-10
8.05921e-13
-1.95157e-13
2.79568e-13
-5.84861e-13
-2.94186e-12
-7.61057e-13
-3.63656e-14
-4.35344e-13
-6.82906e-11
-2.90408e-12
1.70309e-10
-2.76411e-11
3.18851e-11
-5.07571e-12
7.93773e-11
8.09649e-11
-8.2953e-13
3.76185e-13
-2.43287e-11
7.90829e-11
6.02478e-13
-6.83196e-13
2.97895e-13
-2.82401e-14
-2.15563e-13
3.49759e-11
1.94015e-13
-4.4531e-11
4.83413e-11
3.39143e-11
-6.24013e-14
-7.44742e-13
-1.48961e-13
-1.32544e-13
-6.41087e-14
-1.22019e-12
-7.70157e-14
-1.46651e-13
2.26534e-12
8.3909e-15
-5.42869e-13
-2.9797e-11
-2.22951e-12
2.98052e-13
6.37623e-11
-5.33704e-11
-6.40617e-11
-7.11756e-11
1.17351e-12
-8.82634e-13
7.37246e-11
3.63712e-11
1.73735e-11
-5.8035e-13
2.43961e-12
1.16124e-12
6.49929e-12
1.52645e-10
4.89799e-11
-3.18169e-12
-4.87998e-11
2.70217e-13
6.54776e-15
0
1.41683e-10
-1.93857e-12
-2.8334e-11
7.65078e-14
1.46926e-12
5.90829e-13
-6.15911e-11
2.74906e-13
-3.07888e-13
-6.76452e-12
-2.95829e-12
-6.25125e-11
5.15012e-13
-2.9501e-11
-8.80182e-13
1.39863e-10
-3.4633e-11
-3.01185e-11
-3.28817e-13
2.94237e-13
-1.44542e-12
-9.08631e-11
-2.32598e-13
-3.02573e-11
-8.0591e-12
-1.83928e-12
3.12832e-13
-8.08359e-13
-3.78358e-13
-5.97201e-11
-8.05884e-11
-6.01805e-13
2.91605e-13
-2.97959e-13
-1.03136e-10
-1.01518e-12
1.20147e-13
4.21231e-11
4.10818e-13
5.87573e-13
-2.4356e-13
-9.47253e-11
1.48985e-13
1.48966e-13
1.93659e-13
-3.99635e-13
3.55517e-11
-1.57364e-13
5.36266e-13
1.63771e-13
2.81977e-14
1.12492e-13
2.98006e-13
1.38076e-15
5.96355e-13
-6.37913e-11
2.93495e-13
6.28981e-11
0
-6.9259e-11
-7.81256e-11
-7.22939e-11
-3.96497e-11
3.40023e-14
1.17492e-11
6.13733e-13
4.43778e-12
-4.28249e-13
1.53118e-12
-1.47174e-12
-1.10976e-10
1.56062e-11
-3.04883e-11
-2.8235e-13
-2.93414e-13
1.30262e-12
-2.33581e-13
-3.65982e-11
-9.7951e-13
2.93886e-13
-1.11635e-10
1.20772e-10
-1.17923e-14
-3.31851e-13
7.35384e-12
1.20481e-10
6.15257e-11
-3.05285e-11
-6.30513e-14
1.17385e-12
1.91582e-12
3.53059e-11
-4.68657e-12
-1.62338e-13
7.59805e-11
-5.60524e-15
5.97703e-14
5.71726e-13
-3.43938e-11
-5.97488e-13
3.37822e-11
-6.02901e-13
1.58352e-12
1.84582e-14
2.52347e-11
3.00404e-12
3.01422e-13
4.73962e-11
3.65052e-11
3.08425e-11
-2.17199e-14
3.86835e-11
1.6062e-13
-2.83994e-11
-4.87265e-11
-6.42612e-11
-1.04283e-13
3.71012e-11
5.95812e-13
-1.15412e-13
3.32577e-11
8.35582e-13
2.97805e-13
2.18015e-13
-4.60865e-13
-4.8806e-14
-2.9245e-13
1.48993e-13
-2.85303e-11
6.82815e-11
-7.26262e-11
8.49502e-11
0
0
1.37471e-10
7.89247e-11
-8.06535e-12
-1.3413e-11
1.58758e-11
-1.25951e-11
3.06805e-12
1.47901e-10
-5.88765e-13
5.89762e-13
-5.87928e-13
-1.11655e-10
1.51219e-10
-1.38821e-12
1.3452e-13
5.85656e-13
4.69875e-12
-2.57404e-13
6.68613e-11
2.12474e-13
-5.73904e-11
5.88753e-13
-5.77949e-11
4.64165e-13
2.75066e-13
-5.86148e-13
2.35902e-12
-5.62324e-13
-6.03194e-13
2.03474e-13
-2.9247e-13
5.87926e-12
-5.60179e-13
2.31228e-11
2.33349e-13
-7.61515e-11
5.92197e-11
8.37992e-11
9.18669e-14
3.01711e-15
-8.96187e-13
2.25336e-13
-5.90075e-11
9.13324e-11
5.32417e-14
-2.51458e-11
-1.23615e-13
-1.20555e-12
5.81933e-13
-2.97991e-13
5.09466e-11
2.8952e-11
-4.13058e-11
1.03268e-13
-3.67611e-12
-4.08431e-13
-4.52918e-11
8.96546e-12
1.49e-13
0
-7.50741e-13
-1.42583e-13
-3.67588e-11
1.90667e-11
-3.437e-11
-6.61883e-11
-4.5026e-13
-5.08594e-13
3.14399e-11
-2.93965e-13
-6.8877e-11
7.30294e-11
-8.43683e-11
0
0
-6.90232e-11
-2.9424e-13
7.76715e-12
7.4147e-11
-2.73108e-13
1.10817e-12
3.68293e-12
5.77602e-13
-1.9462e-11
-1.19954e-10
-1.26013e-10
4.62951e-12
1.26307e-10
-2.73722e-14
3.97765e-12
2.92839e-13
7.94147e-12
-8.63272e-13
3.5922e-11
-5.54776e-14
5.73862e-11
-1.22876e-12
6.37591e-11
-9.89584e-14
8.61124e-14
-5.74418e-11
0
-7.37355e-11
3.09409e-11
3.57347e-13
1.1698e-12
2.35537e-12
-1.41041e-13
5.16725e-12
-2.8067e-13
2.8474e-13
3.80323e-13
-1.69907e-10
-3.06846e-11
-1.76611e-11
2.98727e-13
1.0646e-12
5.88035e-11
-9.10227e-11
-5.9337e-13
-5.74309e-11
-1.3574e-12
1.50722e-12
-1.9191e-11
-3.66553e-11
-3.1376e-11
2.94118e-13
-3.81932e-11
-6.10385e-13
2.8194e-11
-1.76773e-13
3.01257e-11
6.48546e-13
-3.66563e-11
0
6.82053e-13
-3.32621e-11
-3.61474e-11
-2.80964e-11
1.79121e-13
8.73738e-13
-2.90173e-11
-6.40033e-11
-3.51776e-11
5.99873e-13
-5.93425e-11
2.68723e-13
0
1.46432e-12
5.86233e-13
-2.92484e-13
-8.82704e-13
-1.19502e-12
-4.39945e-13
-4.34842e-11
1.04634e-12
-1.22771e-12
-3.50554e-11
1.13248e-10
-5.31836e-12
-2.94441e-12
1.86656e-12
-1.25517e-10
1.46991e-12
2.81624e-11
-2.92861e-13
7.05895e-13
1.81742e-12
-6.66473e-11
3.73417e-11
8.78473e-13
-6.68921e-11
-6.32655e-11
-3.62578e-13
2.8351e-11
1.28378e-10
-1.32371e-10
7.42087e-11
6.81686e-13
-1.85256e-13
-2.04731e-12
5.88888e-13
8.69571e-11
7.01086e-12
-2.85976e-11
-6.63566e-13
-9.08093e-13
8.63415e-11
2.40705e-13
4.09967e-14
1.04566e-10
6.14549e-11
3.80273e-13
-2.68291e-14
-3.39775e-14
5.69874e-11
-7.63536e-13
8.16929e-11
-1.19803e-13
-3.48792e-11
3.355e-11
-2.86464e-11
8.14266e-11
9.60445e-15
-2.82815e-11
2.79552e-11
4.53657e-11
3.37365e-11
-1.93783e-12
5.96492e-13
8.83419e-13
7.79766e-13
3.60709e-11
-1.87835e-11
3.36996e-11
6.60946e-11
2.99661e-11
3.00458e-11
-3.19205e-11
9.35265e-13
5.96583e-11
6.16854e-11
8.55264e-11
-1.75699e-12
2.93091e-13
-6.28796e-11
-2.94245e-13
5.97569e-13
-6.37698e-11
-5.14482e-11
6.18625e-11
1.84059e-12
-1.33333e-12
5.89597e-13
0
8.77185e-11
-1.30048e-12
-6.50512e-13
3.05726e-11
-3.71872e-12
6.23749e-11
-1.80038e-10
3.31859e-14
3.20722e-13
-2.7229e-11
6.14889e-11
1.26193e-10
-3.5384e-13
2.05407e-13
-2.978e-13
-8.499e-12
-3.54406e-12
-1.63936e-13
-2.023e-13
-3.3628e-11
1.16988e-12
0
-8.70895e-11
2.92441e-13
-4.32616e-11
1.29933e-12
-1.18044e-10
-8.74694e-11
3.01037e-11
2.3963e-11
-1.03978e-10
-1.29175e-10
-2.49301e-11
2.69531e-13
5.80251e-11
6.2661e-11
-5.11125e-13
-8.25806e-11
4.32652e-13
4.47482e-13
3.01687e-13
-1.28288e-14
5.11378e-13
6.62367e-13
3.44218e-13
2.7675e-13
-3.55238e-11
-3.52385e-11
1.49172e-13
1.49254e-13
-5.75087e-13
1.45882e-12
3.65579e-11
2.78909e-11
-2.18987e-13
-5.29842e-13
2.93842e-11
6.44848e-11
3.49311e-11
-3.16884e-11
-7.28463e-11
-6.17207e-11
-9.15648e-11
0
-1.46919e-12
6.36327e-11
-5.65668e-11
-5.91901e-11
2.54376e-13
4.10206e-11
-6.31344e-11
-6.12068e-13
7.67324e-13
4.17113e-11
5.88417e-13
1.14988e-10
1.48828e-10
-6.02317e-13
3.13437e-13
-2.85883e-11
-6.19115e-11
1.25094e-10
-7.87572e-11
2.80856e-11
-3.68524e-11
-6.17078e-11
-1.15075e-10
6.75471e-11
8.06141e-14
-2.83833e-11
-6.38179e-11
1.17596e-12
-1.17633e-12
-1.26362e-13
3.62925e-13
5.66307e-11
-5.27656e-12
-2.35423e-13
-1.59421e-13
-1.0246e-11
-5.47836e-13
-2.1321e-14
8.80861e-11
-2.01196e-14
1.91358e-13
0
6.8343e-11
-5.7285e-11
7.68155e-13
-5.90534e-11
-6.29102e-11
1.71116e-12
-3.01277e-13
2.84159e-11
3.0602e-11
-8.45184e-11
2.21684e-13
-4.01914e-11
-4.31079e-13
3.20587e-11
-2.82168e-11
7.67968e-12
7.15721e-12
2.09024e-12
-2.9544e-11
-7.76902e-13
-1.6745e-13
8.34141e-13
6.88368e-14
7.02807e-14
-1.44757e-16
3.68789e-11
-2.93746e-11
5.9689e-13
-7.63861e-13
-5.9733e-12
3.71335e-13
6.82867e-12
-2.97701e-13
1.78729e-12
-2.67584e-12
5.6424e-11
5.83212e-11
2.93523e-11
5.14138e-11
-9.9203e-12
3.05894e-12
2.43878e-10
1.33165e-10
-1.10851e-10
1.21662e-10
2.91815e-12
6.08996e-13
-3.9678e-13
2.73177e-11
4.64169e-13
-3.14012e-12
7.84624e-11
6.68964e-13
5.66017e-11
2.65933e-13
-1.99959e-11
-6.64491e-11
3.65006e-13
-2.55186e-13
5.41548e-13
1.39778e-10
-6.0198e-13
4.59916e-13
3.35206e-11
-5.59877e-11
5.98274e-12
-8.99775e-13
1.29864e-13
4.34265e-11
6.62692e-13
-1.36898e-10
7.42433e-14
-3.32809e-13
7.89586e-11
0
9.89504e-13
8.32051e-11
-1.50347e-12
1.80602e-12
8.99772e-13
-1.35258e-10
1.8092e-12
-2.89229e-13
0
-3.43563e-13
-1.83603e-13
-3.25079e-13
3.21943e-11
2.97326e-13
3.25633e-11
3.54549e-11
3.4586e-11
-7.46291e-13
-8.93264e-13
8.14267e-15
-1.38286e-12
1.70132e-13
-1.79588e-13
-3.4647e-13
3.67831e-11
2.94149e-11
3.11025e-11
4.46635e-13
3.16535e-11
7.76787e-11
0
-6.73994e-13
-6.83689e-14
-2.96748e-13
3.26153e-12
-5.92869e-13
-2.97476e-13
-7.2359e-12
3.77316e-13
9.88698e-12
4.64952e-11
-3.13484e-11
5.31999e-12
1.86455e-11
5.66828e-11
-6.69992e-11
-6.19928e-13
-2.11045e-13
6.52722e-14
-5.83176e-11
0
2.00626e-11
-1.00768e-12
-5.07927e-11
-4.70713e-11
-1.14276e-12
6.50656e-11
-8.98481e-14
-4.71752e-13
1.54905e-13
-5.91464e-13
-2.3357e-11
-2.46495e-11
2.70407e-11
-2.45802e-11
-3.48544e-12
-2.9659e-12
1.96055e-13
1.0482e-13
-1.78095e-13
1.22472e-10
-6.36473e-12
1.93692e-11
-1.56155e-11
1.84134e-11
-2.01584e-10
0
-3.03028e-11
3.31284e-11
1.06666e-12
1.77997e-10
-5.9347e-11
-6.34215e-11
-1.0851e-10
-3.78197e-13
-1.16149e-12
-5.57096e-11
-3.90285e-13
3.92249e-11
0
8.155e-11
-1.14861e-10
-1.60329e-10
5.80931e-13
2.72943e-11
2.84143e-12
6.80469e-11
-2.82679e-11
-1.60212e-13
-5.59212e-11
7.19913e-11
-8.87153e-13
-5.66488e-11
6.17221e-11
-5.92627e-13
1.34313e-10
-1.78649e-12
-2.78585e-11
3.72179e-12
5.16732e-11
-1.68306e-14
-1.18416e-14
3.31425e-11
1.74219e-13
-1.17996e-13
-8.02717e-12
-4.28192e-14
-2.97813e-13
2.8357e-11
4.45146e-13
-1.18548e-12
1.4803e-13
1.47989e-13
1.25789e-11
2.96048e-13
-9.29084e-11
0
-7.42328e-13
-2.8188e-11
3.72044e-11
9.23247e-13
-1.45723e-13
-2.05666e-12
-3.61634e-13
-2.87454e-11
2.76834e-13
2.20901e-11
2.96759e-13
-2.26654e-11
1.04641e-11
7.39595e-11
0
-4.37496e-14
6.90551e-14
-6.16529e-13
8.81762e-13
6.35252e-11
2.86433e-12
-2.76729e-11
9.18086e-11
5.10501e-14
-8.62695e-13
0
-9.43804e-13
2.53789e-11
1.68453e-12
1.44279e-11
-2.9601e-13
-2.89983e-11
2.89909e-11
1.31456e-12
1.9519e-14
-2.62159e-11
-1.72079e-14
2.35598e-11
-5.82905e-11
1.13529e-11
-3.9953e-12
5.91831e-13
-1.54772e-11
5.94168e-11
4.54652e-12
1.72733e-11
2.54557e-12
1.71831e-11
5.75259e-11
-1.59489e-11
-1.03587e-12
3.96645e-11
1.16697e-11
1.70116e-13
5.29928e-11
2.70538e-12
2.66731e-13
8.1311e-13
-2.97122e-11
-2.11026e-11
2.96055e-13
5.9265e-13
1.83294e-11
-7.46639e-11
-1.71368e-12
-2.94384e-13
2.065e-12
-7.73661e-11
2.02348e-11
-1.10461e-11
-2.68222e-11
-5.04467e-11
8.97512e-12
-7.38613e-11
-1.51803e-11
2.23877e-11
-3.17394e-11
3.16646e-11
1.05839e-11
7.99708e-12
-1.48395e-13
-2.96918e-11
-3.82801e-11
9.8642e-14
-1.47993e-13
-3.24034e-11
-5.91861e-13
-3.24129e-11
0
-1.48379e-13
7.42413e-13
8.89222e-13
-1.4813e-13
-1.4802e-13
-3.5062e-11
9.76267e-12
0
-3.65414e-11
-2.98994e-11
-1.48126e-13
-1.48201e-13
4.51762e-11
1.09507e-11
-7.39135e-13
3.04386e-11
4.64055e-11
-7.38931e-13
4.19624e-11
1.47817e-13
-3.67003e-11
3.14011e-11
7.40004e-13
-1.4782e-13
-3.39004e-11
-1.21733e-12
-4.43077e-13
9.4521e-12
5.16401e-13
1.16924e-11
2.25345e-12
2.94545e-11
0
1.2559e-11
-9.99666e-12
-8.53329e-12
-2.0358e-12
-9.69705e-12
-1.2554e-12
7.55886e-12
-2.95427e-13
1.4792e-13
0
-1.56651e-11
1.51012e-11
1.48061e-13
4.28704e-11
-2.65532e-11
1.4786e-13
-1.18027e-12
-1.4773e-12
-6.80295e-12
-1.03534e-12
-2.49757e-11
-4.03187e-11
2.0949e-11
-5.9041e-11
-2.89307e-11
1.47877e-13
-1.08054e-11
9.89738e-12
3.0022e-11
-4.58576e-12
-3.32448e-11
-1.10656e-12
1.81294e-11
3.29727e-11
1.47876e-13
3.26086e-11
8.65992e-12
1.21117e-11
2.95839e-13
1.48007e-13
-2.73456e-11
-8.48324e-13
9.14406e-12
1.10646e-13
-7.00665e-12
3.31646e-13
9.69654e-12
-1.47794e-13
2.7973e-11
-1.48121e-13
-2.95963e-13
1.95042e-11
-2.95412e-13
-3.04306e-11
7.38577e-13
-1.47696e-13
-3.22178e-11
0
1.4812e-13
1.92655e-12
1.33306e-11
-2.88613e-11
-4.43738e-13
-3.16468e-11
3.81525e-11
2.86932e-11
2.95982e-13
0
4.44599e-13
-1.48056e-13
2.96026e-13
1.03569e-11
-4.43746e-13
2.95805e-13
-4.1412e-11
8.8746e-13
6.67247e-11
1.48008e-13
2.96103e-13
2.78253e-11
-3.58032e-11
-5.91523e-13
-1.47845e-13
1.47847e-13
4.4353e-13
1.47835e-12
2.95733e-13
0
1.48004e-13
5.50357e-11
-1.47872e-13
3.14828e-11
-7.39012e-13
-1.4784e-13
-5.91341e-13
0
-7.16765e-11
-3.78529e-11
-3.10678e-12
2.95809e-13
-4.52386e-11
3.94624e-11
1.47854e-13
5.76964e-12
1.47929e-13
-4.43464e-13
-3.26555e-11
2.9563e-13
-2.95784e-13
0
-5.91364e-13
-4.53862e-11
-1.47938e-13
5.92257e-13
3.27201e-11
4.43688e-13
-3.54681e-11
-3.9612e-11
-3.29753e-11
-1.59719e-11
3.56288e-11
-2.77925e-11
-1.47928e-13
-5.92215e-13
1.4805e-13
0
1.18222e-12
1.478e-13
5.91472e-13
-6.6556e-12
-2.9566e-13
-3.65023e-11
-2.8529e-11
7.39467e-13
4.43668e-13
-2.95562e-13
3.04334e-11
-3.85753e-11
-4.43652e-13
-7.39719e-13
-4.43584e-13
-3.96058e-11
-6.17635e-11
-2.9556e-13
3.02932e-11
-2.9546e-13
-4.43256e-13
-8.8704e-13
2.67756e-11
3.06366e-11
0
4.43571e-13
-2.95618e-13
2.95594e-13
0
-3.26616e-11
-3.57762e-11
0
-1.4799e-13
3.03494e-11
3.81842e-11
0
7.39413e-13
0
0
0
1.47923e-13
-2.95975e-13
-2.96081e-13
7.39884e-13
-3.10703e-11
0
3.47571e-11
-9.90888e-12
0
-7.39494e-13
1.47918e-13
-3.12167e-11
-4.43912e-13
-4.49772e-11
-4.37853e-11
5.91576e-13
-2.80974e-12
-1.47879e-13
0
1.47872e-13
-1.47883e-13
-4.43747e-13
-2.45588e-11
-1.03544e-12
2.94306e-11
-1.47869e-13
1.47872e-13
3.87461e-11
1.03516e-12
3.44511e-11
-1.47854e-12
-2.95761e-13
7.24757e-12
0
-1.30132e-11
-3.03133e-11
4.43686e-13
1.0355e-12
5.91693e-13
1.47877e-13
-3.41525e-11
1.56728e-11
2.95761e-13
1.47888e-13
0
1.47882e-13
1.47927e-13
-7.39868e-13
2.66343e-11
1.47904e-13
4.43554e-13
0
6.65399e-12
1.03523e-12
-3.99259e-12
3.06109e-11
-5.02932e-12
0
2.85561e-11
2.66212e-12
3.16388e-11
-1.47841e-13
4.43593e-13
-2.83962e-11
-7.3936e-13
-3.94781e-11
-1.33088e-12
-3.43133e-11
-2.95788e-13
2.51347e-12
-2.86784e-11
3.07509e-11
2.95743e-13
2.95827e-13
-3.09075e-11
-3.06057e-11
-3.40038e-12
1.47847e-13
-1.47842e-13
7.39119e-13
-8.8696e-13
1.47859e-13
0
1.47944e-13
-2.36658e-12
-1.47873e-13
8.87101e-13
3.16382e-11
1.47835e-13
3.35589e-11
-1.47856e-13
4.141e-11
3.31355e-11
-1.9236e-12
-1.34626e-11
2.8693e-11
-1.03512e-12
-1.4786e-12
-3.81471e-11
-2.85382e-11
-1.47891e-13
2.95851e-13
-2.95913e-13
1.33137e-12
-3.10624e-11
-9.90941e-12
0
-2.95768e-13
2.94284e-11
-7.39421e-13
-3.94874e-11
-1.47911e-13
2.95844e-13
0
-2.9581e-13
0
-2.9577e-12
-1.47884e-13
1.47881e-13
-1.47878e-13
-5.91513e-13
-1.47892e-13
-1.47904e-13
-3.22418e-11
2.83949e-11
-4.43651e-13
7.39447e-13
3.86014e-11
8.87363e-13
3.38642e-11
3.401e-11
4.43624e-13
3.63799e-11
1.47886e-13
-1.47883e-13
-6.90642e-11
-2.95818e-13
-1.77512e-12
7.39604e-13
4.43679e-13
-3.38617e-11
1.56733e-11
-1.47867e-13
-2.95764e-13
2.95763e-13
0
0
-1.18362e-12
-3.26958e-11
0
-1.47871e-13
4.03644e-11