/*--------------------------------*- C++ -*----------------------------------*\
  =========                 |
  \\      /  F ield         | OpenFOAM: The Open Source CFD Toolbox
   \\    /   O peration     | Website:  https://openfoam.org
    \\  /    A nd           | Version:  10
     \\/     M anipulation  |
\*---------------------------------------------------------------------------*/
FoamFile
{
    format      ascii;
    class       volScalarField;
    location    "1.2";
    object      gradTy;
}
// * * * * * * * * * * * * * * * * * * * * * * * * * * * * * * * * * * * * * //

dimensions      [0 -1 0 1 0 0 0];

internalField   nonuniform List<scalar> 
46825
(
-2.98172e-13
0
0
2.66202e-11
1.03996e-12
-1.41138e-11
4.46156e-13
-2.35321e-11
1.49078e-13
7.45498e-13
2.26423e-11
1.18533e-14
2.95271e-11
4.87117e-11
2.53766e-14
-1.40588e-11
7.32036e-13
3.97582e-12
3.02266e-13
7.74353e-13
5.08224e-13
-1.8223e-13
4.74592e-13
-2.54594e-11
-1.43288e-12
-2.05671e-13
1.74917e-13
5.9425e-11
-2.06028e-13
-5.85833e-13
-4.51651e-11
-3.38221e-13
-2.89372e-11
-2.1801e-11
-8.07125e-14
1.68383e-13
-2.78375e-14
3.08531e-11
-4.84493e-13
3.15537e-13
2.1942e-11
-4.81572e-14
2.12783e-11
2.53769e-11
5.59178e-14
2.62899e-11
-6.12338e-15
-3.12537e-11
-4.09473e-14
-2.41753e-13
2.28631e-11
2.02943e-11
7.08702e-12
2.17848e-11
-6.41974e-13
9.29977e-13
2.86188e-13
-3.00481e-11
-1.08153e-13
-1.05111e-13
-2.14955e-11
2.60294e-14
-2.18706e-11
9.42958e-12
2.07148e-13
-2.65698e-11
7.99045e-14
-2.28519e-11
1.11633e-13
2.84099e-13
-6.28292e-13
-1.98933e-11
-2.44072e-11
-2.20666e-11
2.93296e-13
-7.91219e-13
-1.23557e-13
6.02519e-13
2.75811e-14
-3.83379e-13
-1.46552e-13
3.56492e-13
1.02776e-13
-1.02668e-11
2.53838e-14
6.57671e-14
-4.04918e-13
2.26263e-11
4.474e-14
2.02029e-14
0
-1.49096e-13
1.69813e-11
-7.43695e-13
0
0
2.9749e-13
-1.04278e-12
0
-2.98252e-13
0
1.49346e-13
0
-2.73101e-11
2.04387e-11
0
-5.96944e-13
-2.07581e-11
0
-2.16363e-11
-1.72063e-14
-5.69856e-15
1.43662e-11
9.04802e-12
-7.03023e-12
-7.17994e-12
-2.61727e-13
-4.1267e-11
-1.70891e-13
-2.20505e-11
3.11807e-14
-3.74453e-13
-5.74863e-11
3.67906e-11
-3.00011e-11
-6.56044e-13
-9.43289e-13
1.45916e-11
9.89459e-14
-1.44286e-13
-2.26267e-13
1.45276e-13
2.79855e-12
-1.02015e-12
2.74277e-12
2.24128e-12
1.1102e-12
-2.39372e-13
1.01206e-12
6.48364e-14
-7.61812e-14
7.62343e-14
5.3688e-11
-2.15691e-13
5.04879e-11
5.01954e-11
6.33012e-13
1.05375e-13
-1.24438e-13
3.6182e-13
-1.65343e-14
2.07772e-11
-3.75381e-13
1.76381e-13
-5.15147e-11
-5.04547e-11
7.45325e-11
3.23969e-13
-1.05148e-12
-3.70002e-14
3.37674e-13
-3.64848e-13
-3.09901e-13
-6.82798e-13
-4.461e-13
-2.47508e-13
-7.56225e-11
4.43848e-11
-3.60651e-11
1.97463e-13
-5.24886e-12
-2.07275e-11
-4.5351e-11
-4.24274e-12
-4.78983e-11
-1.05323e-12
-6.92921e-13
-4.26815e-11
2.49874e-13
4.467e-13
3.0193e-14
5.17091e-13
-1.19749e-12
8.22704e-13
1.48832e-11
6.99293e-12
-7.8533e-13
-1.07031e-11
3.62524e-11
-2.40007e-11
5.07349e-12
4.48054e-13
-4.47996e-13
1.49228e-13
4.47528e-13
-2.19293e-11
4.47715e-13
2.3746e-11
0
-2.40259e-11
-6.11569e-11
-1.49274e-13
-3.78842e-11
-1.19217e-12
2.96608e-11
1.34142e-12
-5.99042e-11
1.02915e-11
1.49293e-13
1.49191e-13
-2.78987e-11
4.10833e-13
-3.77831e-11
-4.36425e-11
-1.94359e-11
-3.67872e-12
-4.6598e-11
-5.57689e-13
-2.06332e-13
2.47442e-13
5.83885e-11
2.29886e-13
-5.17735e-11
1.31241e-09
2.13538e-09
2.05141e-09
2.13572e-09
-1.82555e-10
4.48129e-13
2.83572e-11
-3.2254e-12
1.03367e-13
9.87411e-11
-3.03944e-07
-2.64888e-07
-2.68114e-07
-2.23881e-07
-3.46903e-08
-4.87062e-13
-3.61356e-11
-2.84012e-11
-9.16074e-14
-1.08401e-10
4.04753e-09
2.17545e-07
2.30655e-07
1.77761e-07
-7.30898e-09
-5.44787e-13
-2.8298e-11
-1.18309e-13
4.92125e-11
1.2021e-10
-2.01419e-10
-5.17462e-08
-5.36697e-08
-4.42689e-08
2.23923e-09
2.01403e-12
3.60275e-11
1.60331e-13
-1.07576e-10
-5.25505e-11
1.19218e-08
-6.34759e-07
-6.57983e-07
-5.46839e-07
2.36697e-08
-2.1016e-12
2.10267e-11
-2.40025e-13
1.26132e-10
2.04127e-12
2.93843e-08
1.41356e-07
1.45561e-07
1.26674e-07
-5.88623e-10
1.2238e-12
6.58473e-13
5.83028e-14
-6.69902e-11
-6.3239e-12
4.37888e-11
6.58168e-13
-1.97195e-11
4.49339e-13
1.992e-12
-6.91671e-13
-2.07447e-11
-1.49171e-13
0
0
-1.7429e-11
-8.6423e-12
3.39741e-11
6.555e-12
0
-9.105e-12
-4.47561e-13
-4.30056e-11
3.43315e-11
-5.9072e-13
-3.87419e-11
-5.47993e-11
-7.42815e-11
-5.25249e-11
-9.4513e-12
6.09481e-12
-1.48854e-13
-2.8274e-13
8.01017e-11
2.11086e-10
1.39694e-08
4.78099e-09
4.60528e-09
5.31354e-09
9.09761e-09
-1.09572e-12
-2.6141e-11
4.54178e-11
-4.64634e-11
1.36551e-08
0.000196235
0.000203779
0.00020476
0.000202789
0.000196741
8.61358e-09
4.03705e-15
4.66154e-13
3.51824e-12
-7.42385e-07
-1.20799
-1.92661
-1.93744
-1.91061
0.290755
6.69472e-08
3.97787e-12
-2.56315e-11
-7.07752e-11
-7.80728e-09
-0.0102294
-0.0343983
-0.0358412
-0.0326801
-0.0344364
4.6751e-09
2.32756e-11
-1.12263e-12
2.86037e-11
1.26688e-08
0.000936511
0.00224506
0.002206
0.00219938
-0.0371081
-7.69457e-10
2.21066e-11
2.25913e-11
1.39936e-11
1.61482e-08
0.0556203
0.0992898
0.100434
0.0995291
-0.041144
-1.57518e-08
-2.40476e-11
7.29431e-13
6.0237e-11
1.97099e-06
-0.0571257
1.39478
1.40154
1.37687
-0.115713
-1.37882e-07
-1.11002e-13
-2.14284e-13
4.48543e-13
-1.0892e-07
1.26468e-05
1.17375e-05
1.16664e-05
1.18439e-05
9.39835e-06
-1.81086e-10
1.26815e-12
-1.48808e-13
-3.83316e-11
1.52029e-11
3.27049e-11
5.72684e-11
5.27288e-11
3.65203e-11
2.71616e-11
6.68721e-12
4.46502e-13
-2.97237e-13
1.02395e-11
-4.55716e-12
-2.89313e-10
-3.50373e-10
-3.04637e-10
-2.79145e-10
2.71867e-11
-4.49728e-11
0
3.33263e-12
1.77909e-13
-1.42244e-09
-8.6188e-07
-1.38175e-06
-1.3432e-06
-1.43682e-06
1.16192e-07
-3.26778e-11
-2.22515e-11
2.65675e-13
9.51551e-11
6.65765e-07
0.120219
-1.71678
-1.72133
-1.71399
-0.0112739
3.12155e-08
-2.3208e-11
-1.71597e-12
1.2209e-08
0.0372796
2.21164e-05
2.41497e-11
-2.21888e-11
3.97401e-09
0.00102687
3.7067e-06
5.48487e-11
-2.51582e-13
-6.27539e-10
0.00017659
-3.98923e-07
-9.11409e-13
2.09325e-11
-9.29808e-09
-0.00168882
-1.18357e-05
-3.36986e-11
-2.08524e-11
1.04823e-09
0.00188831
4.9563e-06
-2.33705e-11
-1.06604e-12
2.77938e-13
-2.23215e-07
0.00223054
0.00267062
0.00267766
0.00264574
-0.000117171
6.15602e-10
1.07711e-11
1.96178e-11
8.90069e-13
-4.15733e-11
2.45694e-10
3.13958e-10
3.00373e-10
2.48458e-10
-2.6444e-12
1.78055e-11
3.43382e-11
2.73543e-11
2.88217e-11
-1.14771e-11
-2.25382e-10
-2.96504e-10
-2.79864e-10
-2.21623e-10
1.67643e-11
7.27993e-12
-1.4871e-13
-3.43663e-14
2.83815e-11
-1.66076e-09
-7.88797e-07
-1.45847e-06
-1.39847e-06
-1.51385e-06
1.22333e-07
-7.53837e-13
-2.05399e-13
-2.80636e-11
6.20585e-11
5.03823e-07
-1.45569
-1.79351
-1.79847
-1.78826
-0.0101187
1.16958e-07
-2.57399e-11
1.77297e-12
1.47051e-08
0.0467544
4.72393e-05
3.26443e-11
1.06029e-12
5.59186e-09
0.00132393
4.11747e-06
5.13224e-11
-2.38304e-11
-7.05493e-10
0.00027433
-5.16713e-07
-5.21842e-11
-2.02962e-12
-1.25495e-08
-0.00233842
-1.5331e-05
-3.68413e-11
-1.50498e-11
1.41291e-09
0.00198544
5.58687e-06
2.09923e-11
4.60108e-13
-5.90233e-14
-1.78378e-07
0.00228915
0.00285433
0.00286415
0.00281432
-0.000126287
9.38995e-10
3.28128e-11
3.85054e-11
6.68252e-12
-5.26307e-11
2.27239e-10
3.03476e-10
3.0766e-10
2.27527e-10
-5.95415e-11
-2.822e-11
2.18584e-11
5.2211e-11
4.32679e-11
-3.18069e-11
-2.19693e-10
-2.78287e-10
-2.69448e-10
-1.86928e-10
1.39823e-11
2.86991e-11
-1.48796e-13
2.09788e-11
7.53985e-11
-1.82784e-09
-7.53349e-07
-1.39304e-06
-1.35556e-06
-1.47692e-06
1.23367e-07
2.66638e-11
-3.29272e-13
-3.73011e-12
5.44399e-11
4.78627e-07
-1.45839
-1.79719
-1.80207
-1.79135
-0.0101037
1.19103e-07
-3.01204e-13
1.98271e-12
1.44191e-08
0.0469937
4.74792e-05
2.44103e-12
-2.64144e-11
5.63013e-09
0.00132475
3.8744e-06
5.25158e-13
-1.31289e-12
-8.03684e-10
9.41059e-05
-6.83038e-07
-7.73872e-13
-2.54477e-12
-1.2593e-08
-0.00252041
-1.58306e-05
-1.02856e-12
5.39744e-13
1.34063e-09
0.00198788
5.58582e-06
1.89465e-13
3.21e-13
-2.38677e-13
-1.76701e-07
0.00229566
0.00286505
0.00287507
0.00282376
-0.000127147
9.73638e-10
-6.25851e-13
-2.97522e-13
-1.4863e-13
2.92812e-11
2.19981e-10
2.59868e-10
2.84846e-10
2.18235e-10
-2.79569e-12
-7.43263e-12
2.97578e-13
2.97648e-13
-4.62668e-11
2.1806e-11
-2.22884e-10
-2.80646e-10
-3.03011e-10
-2.26983e-10
4.59466e-11
-3.33263e-11
1.48866e-13
-2.73124e-11
-4.56338e-11
1.20584e-10
-7.49614e-07
-1.39683e-06
-1.3506e-06
-1.47483e-06
1.23144e-07
-3.3859e-11
1.82588e-13
-3.87123e-13
3.18031e-11
5.73464e-07
-1.45838
-1.79733
-1.80228
-1.7916
-0.0100372
1.19182e-07
-1.54708e-13
7.20827e-12
1.46746e-08
0.0469245
4.7452e-05
1.75164e-12
2.19274e-13
5.73755e-09
0.00132449
3.80796e-06
5.9163e-13
2.08301e-11
-8.27021e-10
9.41302e-05
-8.78416e-07
-7.95646e-13
-1.90797e-12
-1.26301e-08
-0.00252026
-2.16549e-05
-2.50403e-12
1.37537e-13
1.4409e-09
0.00199912
2.09278e-06
2.70488e-14
-2.35481e-13
2.71196e-13
-1.82387e-07
0.00229642
0.00286629
0.00287627
0.00282491
-0.000127132
6.49825e-10
1.50813e-13
1.48836e-13
-2.24556e-11
-1.53115e-11
2.03713e-10
2.54419e-10
2.90539e-10
2.29124e-10
5.30033e-12
8.18024e-12
-1.48862e-13
-2.88828e-11
2.53e-12
1.45946e-11
-2.65604e-10
-3.34615e-10
-2.85817e-10
-2.77266e-10
7.07314e-12
1.48838e-13
0
-5.25288e-11
-4.10897e-13
8.99527e-11
-7.71448e-07
-1.42972e-06
-1.39215e-06
-1.50792e-06
1.22926e-07
-9.24117e-13
5.1687e-13
2.19569e-11
3.91961e-11
5.88066e-07
-1.45781
-1.79615
-1.80099
-1.79037
-0.0101114
1.18924e-07
1.38978e-13
2.55419e-11
1.48777e-08
0.046908
4.70627e-05
1.92635e-12
5.51349e-13
5.53616e-09
0.00132367
3.71033e-06
-2.12636e-11
-9.62604e-13
-7.27794e-10
9.43943e-05
-8.49741e-07
-3.74463e-11
-2.36776e-11
-1.25374e-08
-0.00251894
-1.73395e-05
2.03318e-11
1.06239e-13
1.42942e-09
0.00198853
1.24986e-05
3.6982e-11
-1.52853e-14
4.60133e-11
-1.79051e-07
0.00229388
0.00285947
0.00286916
0.00281929
-0.000126401
2.80973e-11
-1.35486e-13
1.48893e-13
-6.54578e-12
3.65346e-11
2.23728e-10
2.95039e-10
3.16021e-10
2.31724e-10
-4.41968e-12
3.88339e-11
0
0
7.44302e-13
-1.04741e-11
-4.12519e-11
-5.61802e-11
-3.25154e-11
-3.07472e-11
-4.42456e-12
7.14639e-12
1.4896e-13
2.09248e-14
1.10269e-13
8.58433e-11
-5.16098e-07
-6.02573e-07
-5.53842e-07
-6.99957e-07
1.09314e-07
4.07022e-13
-3.32712e-13
2.07257e-11
7.05145e-11
6.06832e-07
-1.43424
-1.74411
-1.74787
-1.73984
-0.0112665
1.05008e-07
-7.06416e-13
5.9797e-13
8.50202e-09
0.0395576
3.32704e-05
3.76484e-13
-2.09357e-11
1.93126e-09
0.00103396
2.37909e-06
4.59307e-13
-2.60658e-11
-2.17648e-10
9.09651e-05
-4.1595e-07
1.90228e-13
1.22415e-13
-4.91185e-09
-0.00178127
-9.4932e-06
-6.38133e-13
2.52096e-11
1.0441e-09
0.00198035
4.2206e-06
-7.20176e-14
-2.04025e-13
1.10646e-12
-1.97299e-07
0.00199694
0.00225562
0.00226026
0.00224548
-0.000109589
8.10671e-10
1.1075e-13
-1.4893e-13
2.97625e-13
1.06159e-11
-3.35103e-12
2.40921e-11
2.71402e-11
2.44773e-11
-4.49719e-11
-2.9768e-13
0
6.40453e-12
3.40911e-11
2.94997e-13
6.99556e-12
-8.12916e-12
8.41935e-12
-5.78549e-11
0
1.93559e-12
1.48968e-13
-2.25022e-11
4.2267e-11
1.23705e-11
3.80577e-09
3.76973e-09
3.80386e-09
3.72724e-09
1.34327e-09
-3.01098e-12
2.79371e-13
-2.77413e-11
-2.08361e-12
-5.17311e-07
-0.00103815
-0.00107083
-0.00107241
-0.00106972
-0.000968171
3.15465e-09
2.05842e-11
1.63069e-13
1.05655e-11
7.68902e-06
-3.05663e-08
2.12013e-13
-3.45508e-13
-6.80189e-11
2.71808e-07
-2.2683e-09
-2.1293e-11
-2.30978e-11
4.44646e-11
-3.99066e-08
3.10176e-10
-3.94767e-13
6.80304e-13
-2.12417e-11
-3.95179e-07
8.08467e-09
8.50989e-14
2.30433e-11
4.53637e-11
-3.22382e-05
5.04855e-08
8.14036e-13
-3.15902e-13
8.38925e-12
8.67436e-08
-3.23681e-06
-3.39441e-06
-3.4044e-06
-3.35746e-06
-1.81055e-06
5.08884e-11
5.60191e-13
1.48953e-13
-2.23243e-12
2.94904e-12
-2.03989e-12
2.9028e-13
-1.69814e-11
-1.45704e-13
8.84729e-12
0
1.48964e-13
-4.46831e-13
0
0
-8.72492e-13
-3.76309e-11
-4.86311e-11
7.12552e-12
-2.40256e-11
1.23566e-11
1.19166e-12
1.56957e-14
2.98138e-13
-4.63598e-11
-2.92748e-13
-4.45301e-11
-6.74352e-12
-3.94967e-11
-3.28728e-11
2.95653e-11
1.01864e-12
6.48372e-13
2.97817e-13
2.44793e-12
3.09747e-14
-5.11721e-13
2.26124e-13
5.56706e-11
-3.50834e-11
9.04016e-13
-2.53828e-11
2.98148e-11
4.94724e-11
1.06547e-10
-6.35756e-13
-6.13424e-13
-1.90582e-13
-9.11081e-11
-1.12023e-13
-2.62492e-13
2.48479e-11
-2.94388e-11
4.16328e-11
-1.6395e-14
-5.91181e-11
-2.46401e-11
3.24954e-11
2.92563e-13
-4.91446e-13
5.78897e-11
-2.20963e-11
-5.9071e-13
-5.00157e-11
-1.81674e-10
8.77553e-13
2.53936e-11
-3.25181e-11
5.10673e-11
-1.91928e-11
2.17587e-13
2.06246e-11
1.46546e-12
2.91418e-11
-7.31297e-14
6.38731e-11
2.26752e-11
1.48945e-13
8.33374e-12
0
0
7.0911e-12
8.53816e-12
7.56035e-12
-7.36742e-13
-4.91146e-11
0
0
8.24571e-11
-7.36592e-12
-7.69938e-12
2.7463e-11
-1.76343e-11
-1.10411e-11
8.84017e-13
-1.28013e-11
2.97885e-13
-5.01342e-14
6.14228e-11
4.32877e-13
2.92689e-13
2.86983e-11
-1.81712e-11
0
5.12851e-11
2.56869e-11
5.85606e-14
-6.84649e-14
5.95729e-12
-1.07141e-10
-1.0501e-10
-2.93748e-11
3.60398e-11
2.17858e-11
-7.02854e-11
3.10117e-12
-3.71693e-13
-9.57478e-14
-2.92689e-13
0
1.85491e-11
-2.70807e-13
1.22089e-13
0
9.8493e-11
2.26394e-13
1.12064e-13
-6.7328e-13
0
-1.0162e-10
9.00764e-14
2.2333e-11
9.7605e-14
-5.55649e-12
-5.888e-13
5.9153e-11
-3.20757e-11
2.28025e-11
5.88468e-12
1.2558e-12
-5.9982e-11
-2.23928e-11
2.28753e-11
-4.4801e-12
0
1.29219e-11
2.1968e-13
1.62902e-11
8.09544e-12
-1.442e-11
0
3.18938e-11
2.97867e-13
-6.24977e-12
-3.31434e-11
0
2.76042e-11
1.82102e-11
-4.35757e-13
-6.03894e-12
-7.58939e-12
5.95761e-13
5.95711e-13
8.48341e-12
0
8.13352e-12
1.01153e-11
-6.93623e-12
-4.35738e-13
-2.2097e-11
-3.79538e-11
2.93396e-11
8.98754e-13
6.26811e-13
-4.26482e-13
-4.44955e-13
1.25944e-11
-2.93136e-13
-5.84976e-13
-3.02271e-11
-3.91304e-11
2.3322e-13
-3.00012e-13
-2.97885e-13
-9.85849e-11
-7.78686e-13
1.28714e-12
1.18199e-12
1.17784e-12
6.23651e-11
-3.01977e-13
-1.26638e-11
-2.3776e-11
-2.22964e-14
-5.23073e-12
4.61041e-13
-3.83484e-13
-7.65504e-14
-4.53952e-11
-2.94955e-12
3.79719e-13
-1.64896e-11
2.36876e-11
4.51407e-11
-9.57404e-11
4.63153e-14
2.37495e-11
-3.23955e-13
8.77467e-13
1.76675e-12
1.90043e-12
-1.12897e-13
2.51871e-11
-1.17689e-12
-1.2967e-10
-8.78454e-13
-2.34884e-11
1.07353e-13
1.7623e-11
8.18602e-13
8.79335e-12
-4.39619e-13
5.28599e-12
-2.25452e-11
-7.02853e-12
-3.68929e-11
2.87424e-13
-2.51689e-11
-1.36892e-11
7.80567e-12
5.80911e-13
-9.39183e-12
-5.20161e-12
-2.70118e-11
2.57739e-11
7.44019e-13
4.46789e-13
2.82973e-12
4.46497e-13
1.47319e-13
9.87946e-12
-3.97549e-11
5.78252e-13
-1.58361e-11
7.07135e-12
5.6557e-12
-2.48726e-11
-2.91172e-11
2.80355e-12
-4.19483e-13
1.60924e-13
-3.92158e-11
1.54421e-11
3.74335e-11
-1.6195e-11
1.70878e-13
-2.53753e-11
1.89862e-12
-2.38285e-12
8.66677e-11
6.6968e-13
1.13596e-11
-1.77289e-12
-6.77221e-11
5.9055e-11
0
-7.68067e-14
3.18197e-11
-7.53754e-13
5.81142e-13
-4.76929e-14
-1.17461e-13
3.12954e-11
1.44748e-13
2.35958e-12
-4.44211e-11
-2.04403e-13
-4.8082e-13
9.11411e-13
-1.77288e-11
4.32243e-11
3.79172e-13
-3.26402e-11
-1.16978e-12
0
-3.66993e-13
2.05835e-11
-2.33868e-11
7.85502e-11
3.44355e-12
-4.59101e-11
-2.15608e-11
-5.35314e-13
-7.83928e-11
-5.12902e-11
-1.50428e-11
1.42845e-11
2.46613e-11
-4.65384e-11
3.50651e-11
4.8064e-11
-2.05736e-11
2.35311e-11
-1.116e-11
0
-3.45729e-11
-1.44546e-13
5.20369e-11
0
1.4729e-13
2.08327e-12
2.12977e-11
2.33837e-11
1.6224e-11
1.47385e-13
6.10983e-12
1.21652e-11
8.68931e-12
2.03656e-12
5.45315e-12
0
-3.90248e-11
-2.21753e-11
-1.52022e-11
1.64239e-12
-1.05651e-12
-1.54524e-11
2.93072e-13
1.8621e-12
-1.10494e-11
-1.49288e-11
-2.21872e-11
-2.27358e-11
-2.38193e-12
-3.51429e-12
-9.23414e-13
3.17723e-13
0
5.88424e-13
-2.99475e-11
-3.01753e-13
1.69477e-11
2.26589e-11
9.11151e-13
-9.29309e-11
-4.57179e-13
-1.07809e-13
1.36889e-13
6.76015e-13
-8.84082e-11
-3.50931e-13
-3.7199e-13
2.21185e-11
0
0
9.21871e-14
1.30246e-13
-5.73057e-13
-5.76289e-11
-9.41395e-11
-1.93537e-14
2.49446e-13
6.41627e-13
5.70555e-11
1.99304e-12
2.56674e-12
-3.52318e-13
1.99632e-13
7.6055e-13
-1.15273e-12
-1.57532e-11
1.25821e-11
4.69058e-12
1.50824e-11
1.57972e-11
-4.7918e-13
-8.45575e-14
-2.24911e-11
6.25e-11
8.1045e-12
-6.69081e-12
-4.15589e-11
3.4753e-12
-7.12697e-12
8.54645e-12
4.5092e-11
2.97897e-13
0
0
1.91779e-11
2.63892e-11
-7.6976e-12
-1.53947e-11
1.1225e-11
2.95014e-13
9.38036e-12
1.48985e-13
1.91632e-13
-9.29157e-13
4.15081e-13
3.50421e-11
-1.26715e-12
-3.86254e-12
6.83967e-13
-3.27684e-13
4.61418e-11
1.38247e-13
1.58409e-14
8.92868e-13
-1.3221e-12
5.57054e-11
4.52226e-11
2.36659e-12
-4.01905e-11
-3.49589e-11
-4.66626e-11
-4.63744e-14
1.09461e-13
-7.92964e-13
9.48806e-11
3.01442e-13
-2.25902e-13
-2.87773e-13
5.81865e-11
-6.39307e-13
-7.41673e-13
1.31568e-13
-8.22548e-15
-5.81147e-11
0
-4.2486e-11
0
-3.26571e-13
-4.18674e-14
-8.10104e-11
4.33801e-11
-1.2698e-13
-8.12465e-14
2.86766e-13
-2.92666e-12
1.02438e-11
-2.12357e-11
9.75346e-14
5.31953e-12
6.03348e-13
-9.53342e-13
2.94049e-11
3.61009e-11
-4.43413e-11
-4.73376e-11
-9.80016e-12
-6.29981e-13
-1.4898e-13
-1.042e-12
1.4749e-13
0
-1.45213e-13
0
4.79533e-11
3.43614e-11
0
2.11559e-11
2.1451e-11
0
9.59044e-12
5.82853e-13
0
0
-8.44878e-12
-1.00304e-11
8.0418e-12
1.04302e-11
-8.92711e-12
2.32988e-13
5.62926e-11
-6.74571e-11
-5.55803e-11
6.32476e-11
5.24274e-11
5.01865e-14
-1.83714e-11
3.38479e-13
-2.11515e-11
0
-1.62649e-10
9.00535e-11
1.05461e-10
-1.65563e-11
2.60403e-11
-5.35212e-11
-1.34419e-12
-3.18979e-11
9.47403e-12
7.80204e-13
-1.1253e-13
1.85098e-12
-1.33713e-13
-8.00294e-15
-2.92675e-12
-1.124e-11
-1.63677e-13
2.14957e-11
-4.03703e-14
5.88307e-13
1.35642e-12
-6.79825e-11
-2.26032e-11
-3.81224e-14
1.48784e-12
-1.09741e-10
7.95306e-11
-1.13228e-13
7.43268e-14
1.4085e-13
-1.05827e-12
-1.20021e-11
2.23131e-11
4.434e-13
-3.90184e-15
-6.31478e-11
1.38587e-12
3.20619e-11
1.3659e-11
-2.2027e-13
1.58171e-11
6.51359e-13
1.53344e-13
4.47002e-13
-5.98518e-11
6.0465e-12
8.15639e-12
0
0
1.04861e-11
-1.07648e-11
-4.97267e-11
4.47002e-13
0
8.63563e-12
8.2582e-12
1.01818e-11
2.89397e-13
-5.78735e-13
8.43244e-12
1.03179e-12
-8.93382e-13
-2.96495e-11
-5.21657e-14
2.98173e-13
2.5138e-13
-5.25056e-11
-8.78508e-13
-4.51356e-11
-6.05459e-11
6.51784e-11
-2.98717e-13
-2.29979e-11
3.22345e-14
1.93606e-11
-6.83869e-14
6.98035e-11
1.47191e-10
1.09696e-10
7.81944e-11
-5.32563e-12
3.64139e-12
1.93684e-12
-5.82803e-13
-1.76547e-11
-1.30896e-10
-3.01237e-11
2.26096e-11
-1.02211e-13
-1.17123e-12
0
1.01416e-13
4.22905e-12
6.85899e-13
4.54265e-11
0
-1.9804e-13
-3.68698e-12
3.39584e-13
-4.53154e-11
0
-8.99417e-14
2.33758e-11
-2.56544e-11
2.94202e-13
9.61601e-11
-6.5602e-13
1.74962e-11
2.77028e-11
5.90674e-11
-2.08776e-11
1.52488e-12
-3.35792e-11
-4.20691e-11
3.32992e-11
4.82183e-11
5.55216e-13
2.69477e-11
5.33404e-11
2.11383e-11
3.38926e-12
2.28218e-11
0
-2.8932e-13
8.14009e-12
-2.87339e-11
1.63745e-12
1.3112e-11
-5.95845e-13
5.21116e-12
-3.33221e-11
0
-1.44589e-13
-1.44574e-13
-1.06072e-11
-2.94722e-13
-1.01249e-11
0
2.09878e-12
2.24488e-11
-3.33609e-11
5.09486e-11
-3.08738e-13
-3.55753e-13
1.43826e-13
-5.17969e-11
7.24622e-11
-9.28605e-13
8.39071e-13
-1.0574e-10
1.22764e-12
-2.45123e-11
-1.40952e-10
3.7227e-11
-1.23658e-11
7.38921e-11
-5.07289e-11
2.86121e-11
-2.35364e-12
5.66858e-11
-4.0583e-12
1.32719e-12
1.42179e-12
-1.13496e-13
-4.41794e-13
0
-6.59294e-13
-2.868e-11
3.00688e-14
-5.15789e-14
1.1227e-11
5.25796e-13
-5.60647e-12
-4.54045e-14
-3.2345e-13
0
-6.38816e-13
-6.35681e-14
-1.07924e-13
5.88444e-13
-2.02989e-12
-1.32431e-12
5.33872e-12
1.90469e-14
-2.87987e-11
-6.33403e-11
-1.57707e-11
-1.02554e-12
-6.01813e-12
-1.22545e-11
-2.63545e-12
-1.86306e-13
4.12129e-13
0
-9.37822e-12
2.85818e-11
-3.99525e-11
-8.23936e-12
-4.48095e-12
-8.86192e-12
-4.50815e-11
-3.1409e-11
0
0
-6.55315e-12
-1.01767e-11
3.56342e-11
-1.83728e-11
2.92198e-11
6.54186e-11
-1.31201e-11
5.95772e-13
2.38492e-12
3.18328e-13
1.13312e-12
6.12986e-11
3.56615e-11
-3.80116e-11
4.13409e-11
6.49158e-11
1.77791e-13
-1.90153e-11
-4.61789e-11
3.06734e-12
-8.93624e-13
-5.54293e-11
1.02356e-12
2.53628e-11
0
0
2.73626e-11
1.96293e-11
-2.63314e-11
-5.52248e-13
-1.52555e-13
1.39153e-11
-4.56235e-11
2.24912e-11
-2.68388e-12
-6.4169e-13
3.00815e-11
4.56024e-11
4.52975e-13
4.25302e-13
1.23298e-12
0
-4.1588e-11
5.38173e-14
-3.36157e-13
-1.67874e-12
0
4.23541e-11
-2.21431e-11
-3.89789e-11
0
-1.08926e-12
-2.92777e-13
-2.32355e-13
1.74409e-13
1.60029e-13
1.44389e-11
-1.88958e-11
-4.39568e-13
-3.87567e-11
-9.2206e-11
1.91805e-11
-4.36941e-13
2.21955e-11
3.90528e-11
-1.44443e-11
-1.47386e-13
1.45353e-13
-1.44632e-13
6.94227e-12
1.00292e-11
8.69546e-12
7.89206e-12
1.49064e-13
0
-7.45265e-13
1.46199e-11
4.65024e-11
3.71414e-11
-1.4507e-13
-1.57377e-11
2.86402e-11
6.54396e-11
2.59541e-11
-3.0373e-11
4.93694e-11
1.86192e-14
3.57983e-11
8.76937e-11
1.65207e-12
-5.74853e-11
2.87057e-11
4.74275e-11
2.60737e-11
2.0968e-11
-5.03254e-11
-3.58591e-13
-1.00288e-12
-8.64771e-11
-9.18257e-13
7.43391e-11
1.58398e-12
-5.37246e-11
-2.09779e-11
5.83714e-11
-4.32765e-13
4.63808e-12
5.2352e-11
-1.03587e-13
-2.95882e-13
9.34922e-13
1.17918e-12
-3.13897e-13
2.1415e-11
-2.77964e-11
-5.90133e-14
2.10925e-10
-9.23483e-15
3.70033e-13
-4.26118e-11
-1.77616e-15
3.31117e-13
-2.16329e-13
-1.37753e-13
-7.87108e-14
1.1769e-12
3.17241e-12
-6.17117e-14
-3.99368e-13
-4.43493e-12
-5.17768e-11
-3.97249e-11
4.2043e-11
6.58537e-13
-1.39278e-12
-2.91481e-13
-2.26798e-12
2.334e-13
-1.46378e-12
-2.58048e-11
5.03762e-11
1.78599e-11
4.80815e-11
0
-3.14766e-11
3.3803e-11
5.31359e-12
-6.70687e-12
-1.6409e-12
0
7.46374e-13
-2.07518e-12
-7.34153e-12
5.85517e-13
0
1.46796e-13
-3.60135e-11
-3.68733e-11
-2.13468e-11
-3.8824e-11
-1.91599e-11
-6.81633e-12
1.36106e-11
1.8408e-13
5.38032e-13
6.02061e-11
-9.74006e-11
-8.49913e-11
6.40076e-13
-9.03866e-13
-2.98124e-13
1.35725e-10
-1.62446e-12
4.03229e-11
1.45265e-12
-7.94126e-11
1.08314e-10
5.57825e-11
2.18627e-11
1.77324e-11
-4.69171e-11
0
-4.84532e-11
5.23193e-14
6.3424e-14
-9.67342e-13
2.19824e-12
4.85371e-11
2.11558e-13
-4.40331e-12
5.30131e-11
-5.82629e-13
3.93394e-13
-2.50151e-14
-3.22055e-11
-6.62685e-12
4.64463e-13
-4.34549e-11
1.26734e-13
4.48556e-12
2.94596e-12
-9.29149e-13
4.53122e-11
-1.98301e-14
3.22126e-11
-7.6902e-13
1.06839e-11
-1.77723e-11
-4.63861e-11
-6.07259e-12
3.20278e-12
-8.7655e-13
-4.22676e-11
-1.14682e-13
2.08989e-11
0
0
-1.84943e-11
5.85444e-13
1.46363e-13
-1.46785e-13
-2.77105e-11
-1.88086e-11
1.49303e-13
-2.34263e-11
-1.82172e-11
-1.3396e-12
2.96481e-13
1.48086e-13
-1.48081e-13
-7.1151e-12
-5.95344e-13
0
1.49223e-13
-1.56398e-13
1.60897e-11
-1.34028e-12
4.2438e-11
4.5789e-14
9.18879e-13
-1.10332e-14
-6.27958e-14
-5.71755e-11
8.14836e-14
2.37961e-11
-4.39211e-11
2.23446e-12
-8.06456e-11
1.40696e-10
-5.3478e-11
5.78905e-11
2.42152e-11
7.69193e-11
-1.49964e-13
7.01795e-13
4.4816e-11
2.29696e-12
2.23018e-12
-2.81943e-13
-4.01147e-13
-6.90834e-11
8.79192e-13
-4.38839e-11
7.71879e-14
-6.51675e-13
6.86346e-11
4.59768e-13
1.39374e-12
6.3148e-14
-2.9214e-11
3.86887e-13
-3.28773e-12
-1.39169e-12
-2.3403e-13
7.62972e-14
-5.92984e-13
-1.04816e-10
7.38953e-13
2.10935e-11
2.64215e-11
1.12131e-12
4.40208e-11
-2.23205e-11
2.03908e-11
-1.91948e-13
-3.26753e-12
-1.66339e-11
1.92876e-13
-1.34988e-13
-2.686e-12
-5.13567e-11
8.48165e-12
-2.51958e-12
0
-1.48084e-13
-7.55944e-12
7.44113e-12
0
-2.10454e-11
2.15872e-11
8.93367e-13
-5.9451e-13
-1.03854e-12
-7.86018e-12
4.44918e-13
1.0385e-11
-6.62837e-11
-2.97762e-13
-2.97756e-13
2.17132e-11
4.21434e-13
-3.59193e-12
-1.54854e-12
1.48724e-11
4.97123e-11
-4.3525e-11
2.35527e-12
-4.18049e-11
-3.43233e-13
2.0284e-11
-2.97143e-13
-5.07531e-11
2.25657e-11
5.56962e-12
-6.69245e-11
2.11731e-11
-5.42434e-11
-1.45625e-11
4.20603e-13
2.1705e-11
0
5.30711e-11
-1.52149e-11
-1.0369e-12
-2.17657e-11
1.92166e-12
1.81123e-12
8.13318e-11
1.99506e-13
-2.06563e-11
1.18708e-12
1.49711e-11
1.46732e-12
1.48517e-12
-5.69606e-11
9.38012e-13
1.3008e-11
-2.43128e-11
1.01757e-13
-2.15809e-11
-8.90667e-13
1.22924e-12
6.46363e-11
-1.02572e-12
1.05482e-11
-1.87869e-12
-2.33843e-11
-7.35654e-13
-2.51494e-13
1.48888e-13
-5.93098e-13
1.11687e-12
-6.53261e-11
7.11216e-13
4.12382e-11
4.13652e-13
9.13267e-11
-6.80317e-11
-4.02656e-13
3.80386e-11
-1.34249e-12
-5.99562e-11
3.54229e-11
-3.62339e-11
1.1074e-12
-7.8943e-13
1.87892e-10
6.78729e-11
1.13044e-13
-4.71403e-13
1.01724e-11
-4.88075e-13
2.81856e-13
5.42726e-11
-6.88288e-11
4.5314e-11
-4.71003e-11
7.56001e-15
-6.78482e-13
-3.79623e-11
-7.1453e-12
1.08459e-11
1.48327e-13
3.3513e-11
-2.96592e-13
3.15978e-11
5.94417e-13
0
-5.95625e-13
5.93864e-13
2.43347e-11
-1.48185e-13
-2.32407e-11
-3.47773e-11
0
-5.92097e-11
-2.25232e-11
4.74809e-12
-5.34476e-12
4.797e-13
8.39803e-14
9.36321e-12
-7.74498e-13
1.19895e-11
-7.48891e-12
-1.69656e-11
-1.27779e-11
-2.47327e-11
1.04329e-13
3.02717e-14
-2.43694e-11
8.5598e-12
3.09614e-11
4.70061e-11
9.93094e-13
4.10372e-11
-3.6288e-13
-3.71071e-11
4.95977e-12
1.51131e-13
1.16397e-11
-2.34945e-12
5.86976e-13
-5.44547e-13
-1.33694e-12
7.981e-13
1.5297e-13
8.777e-12
1.39477e-14
-6.28771e-14
2.16152e-11
-7.34971e-12
-2.95359e-13
3.3277e-11
-6.39739e-12
-1.78331e-11
1.8734e-13
-7.67832e-12
-2.27168e-11
2.50509e-11
1.27123e-11
1.17642e-12
0
7.48666e-12
1.33362e-13
3.40842e-13
5.32616e-11
-3.34273e-11
-1.02514e-14
-4.72627e-13
-1.0042e-12
-2.85036e-11
2.94651e-13
-3.41175e-11
-8.15764e-12
-3.68614e-14
-5.29231e-11
7.43937e-12
1.48533e-12
-2.46574e-11
-2.49637e-11
2.90249e-11
-4.04415e-11
-3.86862e-11
1.51683e-11
-7.73914e-13
2.02216e-12
3.2568e-11
5.57156e-14
1.22364e-13
-2.0196e-11
-4.67721e-11
6.38667e-12
3.6226e-11
2.2504e-12
1.84409e-13
7.42307e-12
-3.04178e-13
2.11026e-11
-1.48459e-13
2.96745e-13
1.57109e-11
0
2.53013e-11
4.43896e-13
-5.92016e-13
-2.42988e-11
0
0
-2.04521e-11
2.69596e-11
1.03614e-12
-1.47941e-13
0
-9.17102e-12
-1.18353e-12
1.98342e-11
0
0
-1.64956e-11
8.95465e-13
-2.32088e-11
-3.49488e-13
8.30587e-14
-8.92144e-12
-6.34885e-15
4.76445e-11
2.81072e-11
2.35435e-12
2.08287e-11
7.14654e-12
-3.0577e-13
-4.78977e-13
-3.43486e-12
1.73073e-13
1.03763e-12
2.44899e-11
2.57726e-13
1.67093e-13
1.71738e-11
-7.18274e-13
5.72702e-11
1.34776e-13
-9.6874e-14
-5.29151e-14
-1.73007e-13
-9.82595e-13
-2.93005e-11
-4.96096e-12
1.19052e-13
-6.07955e-11
-1.35845e-13
1.39747e-13
3.63174e-12
2.28887e-14
7.60959e-14
-2.53992e-11
9.89314e-14
-4.09776e-13
2.97548e-11
6.08711e-13
-3.42253e-11
2.13395e-11
-2.92487e-13
-2.04288e-13
6.65012e-13
-4.9589e-11
8.79805e-13
2.94474e-12
5.56192e-13
2.67224e-11
1.63967e-13
2.04681e-11
-3.75713e-13
-2.33808e-11
1.09798e-13
1.07745e-12
1.38112e-13
-2.01374e-11
-2.98071e-11
-3.9449e-13
2.44482e-13
-2.10616e-11
1.0301e-13
2.44671e-13
2.42299e-11
2.29398e-11
-5.01998e-13
1.73895e-13
-2.34162e-11
-2.87128e-11
-3.73475e-13
-2.06193e-11
8.34539e-14
2.27754e-11
-9.02183e-14
-1.1453e-13
-5.09729e-14
2.02195e-11
-2.2674e-11
-2.85866e-11
0
2.95826e-13
-2.95764e-13
-4.43633e-13
-2.46998e-11
1.47991e-13
1.48111e-13
1.482e-13
3.39048e-11
3.25629e-11
-4.43868e-13
2.6181e-11
-7.39513e-12
-5.916e-13
0
2.95897e-13
-2.27932e-11
1.85064e-11
4.13717e-13
-2.47729e-13
-5.65023e-14
2.62981e-11
-7.50655e-12
-9.13914e-14
-2.54453e-14
-1.18156e-13
-2.32496e-11
2.18274e-11
-3.37571e-11
-2.28575e-11
1.06878e-12
-4.17138e-14
-3.72776e-13
4.45382e-13
4.89255e-14
-5.91615e-13
-6.42324e-13
-1.85548e-11
-6.0524e-13
1.18567e-13
9.74262e-15
-4.26668e-14
8.56719e-14
-1.9865e-11
-2.12926e-14
1.44624e-13
7.71734e-14
-2.69322e-11
-5.97316e-13
-6.75062e-12
-2.38069e-11
3.86099e-14
6.61987e-13
-2.11436e-11
-7.51756e-14
-3.40379e-13
-1.33345e-13
-1.55552e-13
2.13139e-11
-1.37948e-13
-5.11061e-13
-3.64691e-13
2.76372e-13
1.98008e-11
2.50816e-11
2.13881e-11
-2.33227e-11
5.03948e-12
6.32737e-13
-2.80685e-12
2.2388e-11
-2.5132e-13
-5.51712e-14
2.1384e-11
-1.44029e-13
6.65601e-13
1.35674e-13
3.20039e-13
-2.14691e-11
2.53126e-13
5.31528e-13
3.36211e-14
-2.32308e-11
5.23838e-14
-2.44604e-11
-2.15294e-11
2.29743e-11
-1.76623e-13
1.70422e-12
1.02587e-11
-2.0813e-11
3.57253e-15
8.8368e-13
2.88827e-11
2.14758e-11
-2.14508e-13
-2.82533e-14
-2.26493e-13
1.33241e-12
1.0064e-11
-2.11545e-11
5.9153e-13
2.38057e-11
2.86845e-11
2.12939e-11
1.47923e-13
-1.47988e-13
0
4.4393e-13
0
-7.1004e-12
2.95805e-13
0
2.21839e-11
-7.39494e-13
-2.97315e-11
1.47947e-13
0
2.45599e-11
5.55231e-13
-7.28928e-12
-6.69148e-13
-3.32655e-13
2.22526e-11
-3.35816e-13
-5.65955e-11
-4.45224e-14
1.76646e-13
1.33167e-13
1.95328e-13
2.96783e-11
2.35238e-13
9.33458e-13
-4.73679e-14
-8.55532e-15
-6.48523e-13
5.61772e-14
2.54634e-14
-2.42274e-11
-1.01444e-12
-3.14891e-13
5.82591e-13
6.27071e-13
2.44094e-11
-1.42534e-13
2.65818e-11
-3.03288e-11
-2.77499e-11
-1.20668e-11
2.44375e-13
-5.08447e-11
-3.18823e-13
-9.35203e-13
3.41598e-13
4.30849e-13
-4.55448e-14
-2.40123e-13
-1.26849e-13
2.48244e-11
3.67536e-13
-2.76733e-11
7.04214e-16
-3.42932e-13
-2.42064e-11
-9.93853e-14
1.74808e-13
1.32867e-12
2.75592e-11
1.20303e-11
-1.17005e-13
-8.56746e-12
-2.59575e-11
-4.06514e-13
-6.60974e-13
-9.61972e-14
6.61539e-14
-4.15875e-13
1.09383e-13
-1.88304e-12
-1.84917e-13
2.75538e-11
3.59284e-13
-5.24107e-14
-1.85091e-13
5.03814e-14
-2.70514e-11
2.90051e-11
0
-3.33875e-14
1.14084e-13
2.97565e-11
2.59311e-11
1.86409e-13
1.34444e-14
6.81976e-14
-7.03726e-14
5.91572e-13
-1.88176e-13
-2.29353e-11
-1.4794e-13
1.47902e-13
1.47874e-13
1.4786e-13
-4.43571e-13
2.95733e-13
2.7064e-11
0
-2.95913e-13
-5.91721e-13
2.2927e-11
0
-2.07047e-12
0
0
1.47884e-13
-1.47893e-13
-1.47911e-13
0
-5.91666e-13
4.49631e-11
1.47891e-13
0
2.86895e-11
5.91526e-13
2.58787e-11
-1.3309e-12
1.47892e-13
2.72144e-11
0
5.9156e-13
-2.21826e-11
2.07045e-12
1.47898e-13
7.39469e-13
1.47879e-13
-2.57293e-11
1.183e-11
1.47886e-13
0
-2.18866e-11
0
0
-2.92896e-11
-4.43762e-13
-2.58813e-11
8.87206e-13
1.47861e-13
-2.73555e-11
0
-2.95763e-13
2.21844e-11
-3.84607e-12
-1.47952e-13
-4.43834e-13
1.77489e-12
4.87973e-11
-1.18284e-11
0
2.95759e-13
-7.39385e-13
-3.03178e-11
-1.4792e-12
-2.48545e-11
1.47937e-13
2.69178e-11
0
-1.47849e-13
1.47854e-13
1.47881e-13
-2.30681e-11
-2.33643e-11
1.03524e-12
-1.47905e-13
-1.47898e-13
-1.33084e-12
-2.36558e-11
0
0
0
-1.47878e-12
3.04604e-11
1.47864e-12
2.63202e-11
-1.47861e-13
-1.03492e-12
0
3.14924e-11
2.46942e-11
-4.43717e-13
2.35143e-11
2.35116e-11
2.51361e-12
-1.47851e-13
1.47845e-13