/*--------------------------------*- C++ -*----------------------------------*\
  =========                 |
  \\      /  F ield         | OpenFOAM: The Open Source CFD Toolbox
   \\    /   O peration     | Website:  https://openfoam.org
    \\  /    A nd           | Version:  10
     \\/     M anipulation  |
\*---------------------------------------------------------------------------*/
FoamFile
{
    format      ascii;
    class       volScalarField;
    location    "0.9";
    object      gradTx;
}
// * * * * * * * * * * * * * * * * * * * * * * * * * * * * * * * * * * * * * //

dimensions      [0 -1 0 1 0 0 0];

internalField   nonuniform List<scalar> 
46825
(
1.49086e-13
-1.32471e-13
-2.00431e-11
-2.43987e-14
3.42361e-11
-7.10549e-13
-1.85834e-11
5.91242e-13
4.13953e-12
-4.47299e-13
2.98106e-13
1.32386e-13
1.79052e-13
1.06392e-12
8.23298e-14
-1.1225e-12
-2.09524e-11
2.51028e-13
2.18744e-11
2.98125e-13
-1.7124e-11
4.8285e-12
1.65836e-11
-2.18139e-11
-1.63824e-11
-9.99948e-14
-4.92741e-13
4.89892e-13
7.20227e-13
-1.48912e-13
-1.48691e-13
1.4107e-13
-1.8979e-11
-4.16158e-13
1.8738e-11
3.05038e-13
2.34476e-11
-3.95549e-13
-2.33777e-11
2.97386e-13
1.64891e-11
1.71151e-11
5.34663e-13
-3.76315e-13
1.04004e-13
-3.18194e-13
2.24294e-11
-3.27839e-13
-2.22015e-11
4.45643e-13
-1.63425e-11
-8.53715e-14
4.51251e-13
-1.61761e-11
1.93069e-11
-9.89337e-14
-1.93444e-11
-1.25597e-13
-1.53433e-13
2.97125e-13
1.44275e-11
6.88044e-12
1.37681e-12
-7.58919e-12
-1.54744e-11
5.91091e-13
-8.85702e-13
1.11538e-13
3.76544e-13
2.97462e-13
-4.46889e-13
-1.42844e-13
9.64311e-12
-1.55733e-13
-9.59943e-12
2.53793e-13
-1.7406e-11
6.89356e-14
1.76937e-11
0
1.491e-13
-1.51301e-11
-2.00616e-13
1.49786e-11
2.18935e-13
-2.4129e-13
6.50762e-13
3.01948e-13
-5.81075e-13
-1.49101e-13
1.49119e-13
-1.23762e-15
-9.05901e-13
-6.98666e-14
5.94183e-13
-1.82756e-13
-4.87199e-13
-3.49144e-14
5.29112e-13
1.49126e-13
-2.98394e-13
-8.98411e-14
1.63919e-13
4.14333e-13
3.56943e-15
-1.67543e-14
1.55401e-11
-1.81715e-13
7.37021e-13
1.64137e-11
0
-5.95427e-14
-2.05047e-11
1.58571e-11
2.0453e-11
-1.60432e-11
4.87635e-14
4.29652e-13
7.39383e-14
1.49332e-13
0
4.07725e-12
3.28664e-11
-3.29908e-11
8.90881e-13
7.44979e-14
-4.99388e-13
-5.77141e-11
9.68832e-12
-1.49297e-13
-1.49194e-13
-7.02786e-12
1.14907e-12
3.88527e-11
-9.0752e-12
-3.10796e-11
-2.0475e-13
4.78744e-13
-2.24291e-13
0
2.98316e-13
7.10416e-12
-3.50911e-11
3.42472e-11
6.3559e-13
-3.96163e-11
4.05533e-11
-3.4279e-11
6.01978e-12
-1.04409e-12
-1.49173e-13
-4.00122e-12
8.32999e-12
-6.8057e-13
-7.49125e-13
4.98321e-13
-8.10013e-14
3.75483e-13
4.11329e-13
2.98332e-13
1.5819e-11
-5.1607e-12
-2.00233e-11
7.37421e-13
4.54211e-11
-4.56652e-11
-2.12385e-13
2.99646e-12
-7.47898e-13
0
0
6.69861e-12
-1.07793e-11
-1.62154e-12
2.05534e-12
-3.09958e-13
-1.28489e-13
-4.62422e-15
-1.08523e-11
2.71794e-11
5.07825e-12
5.37253e-12
-4.78048e-15
-1.40123e-12
1.65936e-11
1.09796e-12
-3.38069e-11
8.17173e-14
1.75455e-11
4.48082e-13
2.98441e-13
-5.36732e-14
-4.59298e-13
-3.27603e-13
-7.08003e-14
7.92514e-13
2.03454e-13
-2.15123e-13
-1.79282e-11
-1.76091e-11
-2.34186e-11
-2.0421e-12
3.51319e-13
-2.12382e-11
-7.34529e-13
2.59746e-11
4.74404e-14
-2.62539e-11
-8.88615e-14
1.49191e-13
3.01417e-11
3.05328e-11
-2.22343e-13
1.89549e-13
3.07949e-13
-3.32432e-13
-3.85924e-13
3.34033e-11
-3.2794e-11
-1.49247e-13
-4.47221e-12
-4.56389e-12
1.01753e-12
-1.47101e-12
-2.05719e-13
2.59071e-13
-4.97973e-13
-3.24388e-11
3.31498e-11
2.98189e-13
-3.61972e-11
-2.86659e-11
4.11547e-10
-2.5596e-07
-1.25794e-08
2.92368e-09
3.57602e-08
3.49105e-08
6.01298e-11
4.49891e-11
1.49007e-13
6.25371e-11
6.58589e-10
-3.01766e-07
9.27257e-08
-2.08842e-08
-2.63982e-07
5.76799e-08
-1.9942e-13
-3.62091e-11
1.16231e-11
5.32964e-14
7.49577e-10
-3.08848e-07
9.8887e-08
-2.24378e-08
-2.76583e-07
5.90192e-08
-5.96666e-14
-2.98014e-13
-2.14535e-11
1.3434e-11
6.81072e-10
-2.69241e-07
8.04989e-08
-1.79187e-08
-2.26735e-07
5.19464e-08
-3.94493e-13
-7.1506e-12
8.49947e-12
-3.63455e-11
7.80083e-11
-4.88483e-09
-3.61259e-09
8.2951e-10
9.73222e-09
-1.34934e-10
-1.92613e-13
2.1024e-11
2.98511e-13
2.78577e-13
-4.98697e-11
5.03502e-11
-1.01266e-12
1.90594e-13
7.38285e-13
-3.9483e-11
3.84496e-11
-5.97031e-12
1.49171e-13
-1.5366e-13
4.61549e-14
-2.05191e-13
1.90122e-11
-1.38659e-13
-1.84757e-11
-9.78369e-14
-7.83481e-14
1.49187e-13
-1.96427e-11
5.72896e-13
1.90063e-11
-2.75442e-13
1.54357e-11
1.44019e-11
-1.56928e-11
-1.30737e-11
-1.16281e-13
-1.04198e-12
4.30798e-11
4.23205e-11
8.87972e-13
-7.54114e-11
-1.39068e-11
2.84066e-12
7.42421e-11
1.63634e-11
-5.20613e-13
-4.45838e-13
-7.37934e-13
3.77989e-11
-2.95232e-09
-3.97856e-07
-1.19162e-08
-1.35883e-09
1.83633e-08
1.04401e-06
6.99552e-08
-2.58371e-11
-2.66942e-11
1.12762e-08
0.000102154
-1.05154
-0.00771032
0.000490712
0.0207833
0.897697
5.85325e-06
1.39367e-11
-3.01741e-11
1.02876e-08
0.00010571
-1.643
-0.0260401
0.00154572
0.0738247
1.14562
5.29724e-06
1.1719e-12
3.66198e-12
1.02157e-08
0.00010615
-1.6516
-0.027196
0.00163171
0.0758696
1.1497
5.26983e-06
3.58867e-11
-7.48079e-12
1.07108e-08
0.000104755
-1.62297
-0.0268993
0.00154006
0.0751999
1.1304
5.37644e-06
9.97347e-12
6.49511e-12
8.92412e-09
0.000102945
0.0223944
-0.0180621
-0.0212743
-0.0239606
-0.0715699
3.73462e-06
-4.13331e-12
1.48588e-13
-1.20539e-13
8.98117e-09
3.41677e-08
1.65577e-09
-2.51121e-10
-7.28723e-09
-6.31706e-08
-4.74673e-11
5.0527e-12
-1.72618e-11
6.4565e-14
1.78023e-11
-1.36848e-13
-7.87757e-14
2.18988e-13
1.46427e-11
-1.86973e-13
-1.42302e-11
5.95335e-13
0
1.91026e-11
2.3114e-11
5.67333e-12
-2.28727e-11
-4.82221e-12
-8.15964e-13
-7.51424e-13
-2.17057e-14
-1.82865e-11
2.96633e-13
1.52941e-12
6.0115e-11
6.0427e-09
1.97507e-09
-2.01965e-10
-4.02301e-09
9.26063e-10
-9.39831e-11
8.60676e-12
5.28824e-12
-1.10084e-09
-1.67666e-06
-0.00379553
0.00115548
0.000196167
-0.00115096
0.00137872
5.78863e-07
-2.17488e-11
-8.28793e-11
-3.26883e-07
-1.06391
0.00074345
7.99963e-11
-1.16371e-10
-6.24588e-07
-1.29192
0.00149009
1.03226e-10
-9.61376e-11
-6.0321e-07
-1.29451
0.00149419
1.31695e-10
-8.60893e-11
-6.66515e-07
-1.28866
0.00147751
8.66465e-11
4.11439e-12
2.44655e-08
0.00907292
-7.85561e-05
-1.27826e-11
2.65582e-11
9.50743e-12
5.44438e-08
2.15644e-05
1.53475e-06
-2.65482e-07
-6.64182e-06
3.14102e-06
6.43315e-10
-1.66202e-11
1.4862e-12
-1.59366e-11
-6.00233e-13
2.2602e-11
-1.26338e-14
-4.55909e-12
2.03858e-12
-8.22072e-13
7.46343e-12
1.02569e-11
-1.62045e-11
1.92273e-11
1.62756e-11
-1.89346e-11
4.21645e-13
-2.91769e-13
-5.40506e-13
4.15028e-13
-4.22296e-14
-1.4871e-13
-2.15304e-11
-2.79839e-11
5.94025e-11
5.70302e-09
2.60706e-09
-2.12157e-10
-5.35536e-09
1.04876e-09
-2.61648e-14
4.45611e-13
6.02881e-12
-1.22299e-09
-1.87286e-06
0.0357837
0.000998897
0.000205029
-0.00177189
0.00150069
6.3602e-07
-2.05857e-12
-7.16578e-11
-2.89167e-07
-1.09263
0.00124016
4.71396e-11
-1.04489e-10
-6.64666e-07
-1.34856
0.00161058
1.32633e-10
-8.73212e-11
-6.33014e-07
-1.35228
0.00161678
1.35518e-10
-5.47007e-11
-7.00548e-07
-1.34409
0.00158789
6.01898e-11
9.56165e-12
2.67889e-08
0.0103304
-8.38482e-05
-7.3524e-12
3.89191e-11
-8.73719e-13
5.76888e-08
2.53566e-05
2.0774e-06
-3.74333e-07
-8.65675e-06
3.53281e-06
8.00523e-10
5.94221e-13
1.20422e-11
-2.08671e-11
-1.20694e-11
2.12977e-11
7.61907e-13
-5.30154e-13
-2.26794e-11
-1.55943e-11
3.87362e-11
3.27133e-11
-4.46248e-13
4.08127e-11
1.62359e-11
-2.43762e-11
2.07596e-13
-2.18495e-11
-5.12493e-13
6.28456e-12
1.92501e-14
1.57724e-11
-2.06572e-11
-3.19234e-11
2.46954e-11
5.50281e-09
2.5735e-09
-2.23591e-10
-5.38737e-09
1.06868e-09
7.69191e-14
0
7.35847e-12
-1.31745e-09
-1.90064e-06
0.0360105
0.000999887
0.000137502
-0.0017749
0.00150962
6.47849e-07
-2.2073e-12
-9.01353e-11
-2.6689e-07
-1.09407
0.00124791
6.99455e-11
-1.03816e-10
-6.28489e-07
-1.35134
0.00161728
1.01503e-10
-1.04404e-10
-6.06284e-07
-1.3549
0.001623
1.14795e-10
-6.53348e-11
-6.77504e-07
-1.3466
0.00159259
7.54804e-11
2.94458e-12
2.68824e-08
0.0103489
-8.40856e-05
-4.85766e-12
1.4868e-13
4.37732e-14
5.80462e-08
2.56483e-05
2.18826e-06
-3.71038e-07
-8.75158e-06
3.54029e-06
8.11013e-10
-5.50184e-12
0
2.20368e-11
3.06354e-13
-4.42743e-11
-2.89588e-13
2.34125e-11
4.97716e-12
-3.36529e-13
-4.96238e-12
0
2.53001e-11
-3.86738e-13
-2.55157e-11
9.86424e-13
2.88745e-13
-1.1921e-12
-1.96646e-11
1.93901e-11
1.96307e-11
-1.90549e-11
2.08173e-12
-6.28757e-13
1.3034e-11
5.51355e-09
2.60097e-09
-3.05538e-10
-5.31392e-09
1.0512e-09
-1.10468e-13
1.48743e-13
3.6225e-11
9.68634e-11
-1.85132e-06
0.0360388
0.00100006
6.98317e-05
-0.00184208
0.00150952
6.40505e-07
3.09187e-12
-7.29107e-11
-2.68041e-07
-1.09414
0.00124903
7.536e-11
-7.68684e-11
-6.28792e-07
-1.35141
0.00161787
1.06197e-10
-9.89841e-11
-6.05013e-07
-1.35517
0.00162329
9.43644e-11
-7.49658e-11
-6.76188e-07
-1.34667
0.00157268
9.10987e-11
3.53568e-12
2.68898e-08
0.0103518
-2.7871e-05
5.74585e-12
3.42164e-12
-7.45042e-12
5.79375e-08
2.56604e-05
2.20064e-06
-3.64061e-07
-8.786e-06
3.53986e-06
8.45557e-10
5.95168e-12
-1.78603e-11
-2.71197e-12
1.76168e-11
-2.24531e-11
2.17064e-13
2.52611e-11
-1.04305e-12
4.32492e-13
3.80525e-13
-1.48862e-13
-2.12899e-11
-2.16351e-11
1.98712e-11
1.8849e-11
-1.98245e-11
3.91345e-12
-2.20647e-13
-2.24901e-11
-1.10445e-12
-1.48922e-13
-1.48752e-13
6.46746e-14
1.12994e-11
5.65281e-09
2.51088e-09
-2.08369e-10
-5.2774e-09
9.9973e-10
2.076e-11
-7.14231e-12
2.22485e-11
1.30241e-10
-1.85908e-06
0.0359975
0.0009995
0.000137451
-0.00184112
0.00151018
6.4507e-07
-4.12503e-12
-9.64022e-11
-2.84415e-07
-1.09374
0.00124765
7.385e-11
-9.68102e-11
-6.46156e-07
-1.35053
0.00161417
9.72426e-11
-1.33579e-10
-6.22381e-07
-1.35409
0.0016193
8.1914e-11
-8.27609e-11
-6.96633e-07
-1.34577
0.00158495
4.4361e-11
8.84464e-13
2.68544e-08
0.0103355
-0.000214377
4.86449e-12
2.97649e-13
-2.05863e-12
5.79183e-08
2.53924e-05
2.16055e-06
-3.07933e-07
-8.59366e-06
3.51484e-06
7.69213e-10
6.54915e-12
0
1.565e-11
-3.30888e-14
-1.53257e-11
6.40542e-13
-2.41776e-13
-5.22148e-13
1.74528e-11
-2.58158e-13
-1.71252e-11
-2.97844e-13
-2.17912e-13
6.62696e-13
1.71852e-11
-2.47276e-13
-1.68658e-11
-1.45437e-13
3.08221e-14
-1.17021e-13
-1.4896e-13
2.97597e-13
-1.02543e-12
-3.1026e-11
2.56991e-09
6.50515e-10
-2.69646e-11
-1.60409e-09
7.70998e-10
6.64938e-11
-1.84563e-11
2.09388e-11
8.5528e-11
-1.80799e-06
0.0304463
0.000780532
6.77489e-05
-0.00135007
0.00147178
6.21879e-07
-1.47446e-11
-1.45721e-11
-1.48151e-07
-1.07592
0.0010773
1.60269e-12
-8.56373e-12
-1.88979e-07
-1.31158
0.00122305
-1.01599e-12
-6.82254e-12
-1.67741e-07
-1.3144
0.00122511
6.82214e-12
1.83657e-11
-2.5067e-07
-1.30808
0.00121999
2.47739e-12
1.47514e-13
2.26494e-08
0.00930043
-7.41404e-05
5.01473e-12
1.48861e-13
3.51819e-11
5.14027e-08
1.80094e-05
1.29257e-06
-1.70452e-07
-5.15911e-06
2.72225e-06
7.1579e-10
0
0
-5.90019e-14
-2.2595e-11
-4.72946e-13
2.34778e-11
8.62163e-13
-2.76392e-11
-1.16346e-13
2.70879e-11
0
-4.03635e-11
-1.72585e-11
2.37302e-11
4.93014e-13
5.95397e-14
2.42362e-11
-1.99241e-13
-2.47659e-11
-8.51917e-14
0
-3.51224e-11
-2.81025e-11
-1.78615e-12
-1.46805e-11
-3.34683e-12
3.06707e-13
7.18052e-12
3.82749e-12
-1.30956e-12
-6.10256e-12
-7.37242e-12
4.38529e-11
-2.48437e-07
3.34059e-06
9.62291e-08
8.00035e-09
-1.87063e-07
-1.47856e-05
4.1391e-08
-6.93023e-12
-6.99402e-12
1.26858e-09
-0.00044871
-1.44527e-06
2.69555e-11
-1.45149e-13
1.20835e-09
-0.000461628
-1.51518e-06
1.45143e-13
1.95963e-11
1.20099e-09
-0.000462122
-1.51967e-06
6.96718e-12
2.24438e-11
1.23129e-09
-0.000460973
-1.49877e-06
7.43178e-12
-5.89996e-13
3.66063e-10
-0.000415283
-6.79471e-07
-7.37414e-12
1.19101e-12
-1.82811e-11
1.07775e-09
-1.36678e-08
-1.02724e-09
1.54239e-10
3.6238e-09
1.75992e-08
-2.65569e-11
2.9776e-13
0
-3.41405e-13
4.72308e-14
3.52029e-13
-7.44962e-12
-5.72622e-14
6.93771e-12
1.09727e-13
1.31377e-12
2.97928e-13
0
1.59905e-14
-2.64827e-14
2.63331e-11
1.7234e-11
-2.60856e-11
1.25537e-12
-1.65951e-11
-1.93029e-11
1.53426e-11
8.9291e-13
-1.10783e-13
1.48923e-12
9.78875e-13
-1.00591e-12
-8.61766e-13
3.30694e-11
5.29566e-12
-3.89643e-11
5.80402e-12
-6.63049e-12
-2.56326e-11
7.70859e-11
6.34584e-11
-1.37365e-12
-7.48708e-11
-1.51072e-12
-5.56311e-11
1.15403e-11
-6.77835e-12
-7.26969e-12
1.53e-11
-8.20555e-13
-1.24749e-11
-2.48641e-11
-3.50224e-11
-2.85929e-11
1.11532e-11
3.51783e-11
-6.80172e-12
2.89456e-13
-3.71496e-13
1.57012e-11
2.93095e-12
-1.44721e-13
0
-8.87118e-14
6.48668e-12
2.91421e-13
-2.79176e-11
-4.59856e-11
-1.74357e-11
-4.74553e-12
6.29185e-12
-1.76845e-11
-1.23556e-11
1.40134e-11
-3.0134e-13
-1.93902e-12
4.20958e-12
-1.98954e-12
-5.04859e-13
1.80539e-13
-9.88602e-14
-1.01221e-11
4.46836e-13
6.19101e-14
-7.83148e-13
1.05364e-13
-2.84062e-14
-7.28095e-13
-1.85715e-13
-2.09028e-11
3.39891e-13
2.14494e-11
-3.78294e-11
-3.60471e-13
3.74644e-11
-1.5615e-11
1.37126e-11
1.56779e-11
-1.33332e-11
-2.71363e-13
1.66314e-13
-1.48942e-13
5.05934e-12
2.22389e-13
-3.39599e-11
3.42583e-11
2.29925e-13
-1.84179e-13
-4.98885e-11
5.70811e-11
-5.8961e-12
4.61277e-12
2.94572e-13
-9.50026e-13
8.51342e-11
2.90536e-12
-5.89792e-13
8.93075e-13
-2.00159e-12
-2.6375e-12
1.20929e-12
-8.69047e-12
-1.45253e-13
4.31888e-13
1.49369e-12
-5.86098e-13
0
0
1.26753e-12
3.3239e-11
1.46454e-13
-2.89052e-13
-1.15629e-12
2.08139e-13
-2.50252e-12
1.96658e-11
-1.1996e-11
-4.35818e-13
-1.23804e-13
9.4415e-13
1.0356e-11
2.20799e-11
-2.94653e-13
2.23261e-13
2.73666e-11
1.35392e-11
-3.19658e-11
-1.78609e-11
-3.286e-11
-2.92868e-13
-1.67379e-11
-1.9837e-13
2.40991e-13
-8.10797e-13
8.372e-13
-2.83161e-13
-1.04183e-12
-1.72763e-11
-3.59167e-11
-2.99211e-14
3.5082e-11
1.56294e-11
-1.65955e-11
-1.43283e-11
1.5362e-13
-1.16542e-12
-1.4894e-13
7.44638e-13
6.14949e-13
-4.60327e-15
-9.67742e-12
2.27058e-13
9.91241e-12
1.70125e-11
2.12355e-11
-1.75646e-11
-2.1744e-11
0
-1.00667e-12
5.95795e-13
3.50483e-11
-3.40672e-11
-3.25387e-11
3.17327e-11
1.76531e-12
-1.97367e-12
2.7676e-11
5.44911e-12
-1.0053e-11
-2.20056e-12
4.06824e-12
1.5161e-10
-5.90261e-11
3.80152e-13
-5.13108e-13
1.04477e-11
-2.94546e-13
1.45225e-13
-5.04636e-13
1.08949e-10
1.5262e-11
2.585e-11
2.31189e-11
1.34595e-11
-9.79776e-13
3.12128e-11
-1.30041e-11
5.77993e-13
-1.85312e-12
6.93894e-12
-1.35086e-11
7.36919e-12
-6.10011e-12
4.49129e-11
-3.1093e-11
1.19657e-11
1.64114e-11
1.17844e-11
-1.07734e-11
4.32159e-13
-1.039e-11
2.06211e-12
-2.24732e-11
-2.58231e-11
-1.20785e-12
1.20363e-12
-7.05759e-13
4.90041e-13
-3.2867e-11
3.37699e-11
-5.25025e-13
0
0
1.58386e-13
1.97328e-13
-4.58659e-13
-7.57018e-13
-2.0787e-11
1.9434e-11
2.35558e-11
-1.88091e-11
-1.93609e-12
2.38293e-12
2.62913e-12
7.38609e-13
2.23917e-11
-1.67222e-13
-1.03405e-11
2.17928e-13
-1.20129e-11
1.88957e-11
1.87662e-11
-5.50551e-12
8.59858e-13
2.97885e-13
4.63121e-11
-4.63996e-11
3.27882e-11
-3.24299e-11
-2.94186e-13
3.18156e-11
-5.50559e-12
3.84418e-11
3.20556e-11
6.35251e-11
0
0
-7.38235e-13
1.62522e-10
-9.41729e-11
3.56002e-11
-8.6898e-12
-9.44238e-12
-1.70099e-12
-1.59587e-12
-1.57704e-11
7.55379e-12
-7.08299e-12
3.45645e-11
-7.47391e-11
-1.25265e-11
5.63746e-12
-4.10541e-11
-1.54253e-11
9.736e-11
-7.04614e-12
1.44554e-13
-7.26411e-13
-2.80735e-13
-4.91123e-13
-6.20012e-12
1.16222e-12
2.20975e-11
-3.72572e-11
6.97173e-11
-4.17198e-11
3.78582e-11
3.25939e-11
2.35229e-11
4.55934e-11
-4.53011e-11
5.00247e-11
-1.01767e-10
5.03902e-11
-1.28109e-13
6.48059e-13
-1.93475e-11
0
5.20363e-13
-1.9998e-11
-1.20439e-13
4.48184e-11
-1.67838e-13
-2.4583e-11
-1.80661e-13
-1.4752e-13
0
5.95762e-13
3.08008e-13
6.40781e-13
-9.37614e-14
-4.06467e-13
-1.55372e-12
1.47457e-13
1.77233e-12
1.62205e-11
1.65334e-11
-1.71124e-11
5.12583e-12
-3.90079e-11
1.14895e-12
2.70059e-11
-2.85566e-11
5.16394e-13
2.9411e-13
-3.42896e-13
-8.036e-12
2.23965e-11
2.25876e-11
1.50264e-13
0
-2.3576e-12
-1.54926e-12
5.74632e-13
3.79743e-12
1.34504e-11
0
-4.36341e-13
4.05277e-13
2.4957e-13
-7.26042e-14
8.72697e-12
1.44808e-13
2.64431e-13
3.2821e-11
1.41927e-11
-1.44808e-13
-5.50292e-12
1.07419e-11
3.98431e-12
-1.43652e-11
4.63399e-12
-2.92387e-11
-2.27052e-11
3.83706e-12
5.10028e-13
0
-4.71621e-12
8.40871e-12
4.04547e-11
-5.28066e-11
1.35585e-11
-2.18803e-11
-2.28977e-11
-6.03474e-13
-4.55219e-11
4.56279e-11
1.60394e-13
-3.06246e-13
-4.63951e-13
1.06456e-13
-4.46525e-13
2.91938e-11
3.87283e-13
-2.91871e-11
-2.43829e-11
-4.77331e-13
2.3862e-11
5.90884e-13
2.48802e-11
-8.11229e-14
-2.53212e-11
-1.48961e-13
2.3103e-13
-2.02128e-11
-3.09106e-13
2.00498e-11
-2.41677e-13
8.94033e-14
5.87723e-14
-1.18428e-13
-2.9797e-13
1.19063e-12
5.01362e-14
5.0898e-11
-8.99408e-11
3.87469e-11
-4.01108e-11
4.08384e-11
1.16363e-12
-2.42413e-12
-5.50777e-12
0
-1.25095e-12
2.2301e-12
-7.97783e-13
1.42324e-10
-1.57104e-12
-5.57039e-13
1.32081e-13
-1.04897e-11
-1.47476e-13
-6.41339e-12
-4.63899e-13
-2.43979e-11
3.53753e-11
-5.6847e-12
4.35648e-13
1.65328e-13
4.33047e-12
-7.81291e-12
-1.16174e-12
-8.71334e-13
-9.98759e-13
-7.19902e-11
1.1148e-11
5.80886e-12
1.89508e-12
-5.90774e-12
-2.76573e-11
-1.05712e-11
1.45771e-13
-1.00308e-11
9.54267e-12
2.14965e-12
1.89902e-12
-9.88252e-12
1.04228e-12
-1.05461e-11
1.26397e-11
-4.50978e-12
4.10693e-13
-4.52932e-13
-5.51135e-11
5.69941e-11
2.4845e-13
-2.14405e-11
0
-2.14781e-13
1.95021e-13
-1.41642e-13
1.72653e-14
2.71055e-11
1.92906e-11
-2.74474e-11
-2.0308e-11
-4.46956e-13
5.95862e-13
8.71046e-13
-6.93636e-13
-1.44433e-13
4.60438e-13
2.01162e-14
-1.40832e-13
-1.55573e-14
-1.56322e-13
-2.98006e-13
-2.09852e-11
-2.11364e-11
-5.95658e-13
2.70243e-13
-3.40845e-16
5.65223e-13
6.15922e-13
2.94504e-13
1.71567e-13
1.44418e-11
1.16491e-11
1.04862e-12
-1.55561e-12
-1.63895e-12
-1.36388e-12
-6.73871e-11
7.24943e-12
1.28243e-12
2.41598e-12
-5.45685e-12
1.45656e-13
-2.25174e-13
-2.48793e-11
1.09384e-12
-2.68019e-11
-6.09186e-12
-3.42955e-11
5.7498e-11
4.96773e-11
5.80196e-13
0
-6.66585e-13
-1.47668e-11
1.58002e-11
-3.19116e-12
-1.45662e-12
3.57455e-12
-2.42546e-11
-2.23204e-11
-2.25773e-11
1.25376e-11
-1.02935e-11
-8.60965e-13
1.48619e-11
7.66978e-12
6.70155e-12
2.39247e-13
-1.07694e-12
4.52461e-13
-1.08057e-14
-4.27332e-11
4.24238e-11
2.4625e-11
-2.47281e-11
2.97843e-13
-2.89061e-11
-6.27964e-13
2.88951e-11
1.79644e-13
-1.66852e-13
4.03107e-13
-2.28133e-13
-2.79054e-11
1.06968e-13
2.80121e-11
0
-9.9454e-14
1.53228e-13
1.62784e-13
1.92884e-14
-8.20911e-14
-3.52109e-13
3.71376e-14
-5.02564e-14
1.48993e-13
6.54702e-12
2.00189e-15
3.24746e-11
-3.17415e-11
1.23883e-12
-2.08561e-12
4.86726e-13
1.47123e-12
-1.06768e-13
-2.96224e-11
8.3994e-12
-1.17245e-11
1.43159e-12
-2.31638e-12
5.54842e-13
1.05145e-13
6.67734e-13
6.2972e-13
0
-1.6653e-11
1.45381e-13
-3.19644e-11
7.37581e-11
-4.77704e-12
-2.19523e-11
-4.77389e-12
3.35979e-11
-4.43321e-11
1.11182e-11
8.24605e-12
1.15734e-11
1.11334e-13
-9.4093e-14
-2.36726e-11
-2.14112e-11
1.45374e-13
-6.93144e-13
3.44626e-11
2.98014e-11
7.2689e-13
-1.47386e-13
-1.92927e-13
1.09373e-11
1.04597e-11
1.82764e-11
3.32031e-11
2.59643e-11
2.11311e-12
-2.23172e-12
1.33723e-12
-1.25898e-13
-1.93547e-13
-3.31547e-13
-2.16687e-13
2.06971e-11
-3.4269e-12
-2.04313e-11
5.06345e-12
2.69714e-15
-3.76236e-11
-2.89602e-14
-9.80604e-13
-1.63182e-13
3.74414e-11
2.0562e-11
0
1.89303e-11
1.67601e-13
-1.85012e-11
-3.28998e-14
-5.58672e-13
-6.92467e-14
1.93411e-13
-1.34691e-13
2.98008e-13
1.63671e-11
-5.40628e-11
3.54577e-11
-6.0493e-13
8.21644e-14
-3.29993e-13
-5.00612e-11
4.92375e-11
1.17781e-12
-6.40081e-12
-1.47327e-11
-2.62313e-12
9.78279e-13
-5.44908e-11
-8.16815e-11
8.12802e-12
2.84359e-12
-7.41532e-11
6.66973e-11
-7.21907e-12
-1.45302e-13
6.95226e-13
2.97986e-11
9.44589e-13
2.16476e-11
2.89105e-13
-1.40098e-12
1.02905e-12
-4.62195e-11
6.07133e-12
-5.34857e-12
3.78363e-11
-1.9634e-11
1.05687e-11
8.09532e-12
3.34177e-12
7.16452e-12
1.70097e-12
6.44081e-11
-1.99059e-11
-1.47352e-13
5.6632e-13
-2.26123e-11
1.70536e-11
-2.94725e-13
-4.61545e-12
-1.10325e-12
-1.88737e-14
7.15403e-13
-5.24341e-13
4.267e-11
-4.20057e-11
-7.17223e-11
7.34228e-11
-4.467e-13
-2.98011e-13
1.6196e-11
-2.30564e-11
-1.62487e-11
2.02357e-11
-4.94056e-14
-2.22405e-11
-2.24187e-11
2.58005e-11
2.27984e-11
-4.47031e-13
2.58891e-14
-1.93575e-11
1.415e-11
1.1163e-12
-5.12781e-11
1.87329e-11
3.69453e-11
1.81989e-11
1.75888e-11
-5.35838e-12
8.75354e-13
-1.48984e-12
-1.75442e-13
1.65271e-13
-4.71475e-13
3.27848e-14
-1.15052e-12
1.87002e-12
2.57607e-11
-5.30567e-12
6.71987e-11
-9.10234e-11
-7.88415e-11
8.05546e-13
1.62471e-12
-7.83116e-11
2.28622e-12
-9.67308e-14
-1.87172e-11
-3.7797e-12
-3.13553e-12
9.26172e-11
1.00298e-11
-1.88958e-12
2.89271e-13
4.04717e-11
-1.95826e-11
1.26006e-11
-6.36397e-12
6.50877e-12
5.14502e-14
2.3495e-11
1.34325e-11
1.44643e-13
-2.90731e-13
-3.30324e-11
4.48745e-11
-1.07961e-11
0
1.47405e-13
-1.17383e-13
-1.55557e-11
3.26401e-12
-1.44469e-11
4.92969e-11
3.88654e-11
9.05971e-13
-5.91403e-12
5.74418e-12
2.50888e-15
4.31418e-13
-1.84392e-12
-3.47255e-11
1.07243e-11
0
3.52934e-13
1.78475e-13
2.41308e-14
-1.34039e-13
-4.81066e-13
3.78708e-13
7.038e-13
-3.48523e-13
-5.96255e-13
4.47369e-13
-1.81076e-13
-2.10106e-11
-1.58242e-11
2.04492e-11
1.57612e-11
-1.61711e-11
-3.61613e-11
-3.26804e-12
1.65569e-11
6.55507e-12
-5.5937e-13
1.19163e-12
-2.77953e-13
-1.4605e-13
-2.72805e-13
-1.95722e-13
2.41604e-13
-3.80656e-11
1.4754e-11
3.60116e-11
3.03925e-11
-4.32137e-14
1.15909e-12
-3.77701e-11
8.06808e-11
8.98164e-13
3.50995e-13
2.26957e-12
-3.24724e-12
-2.36067e-11
-4.66942e-12
-1.1818e-10
-1.4595e-11
-2.11272e-11
-2.20509e-11
-2.71612e-11
7.90389e-13
-4.25111e-11
1.4506e-13
-2.23415e-11
-4.68724e-12
-4.50146e-13
-2.683e-11
5.80267e-13
1.45719e-13
3.22106e-11
-4.47365e-11
-4.80933e-12
-5.39173e-12
1.49095e-11
3.57316e-11
6.8542e-11
-3.51071e-11
7.38182e-13
-6.40964e-12
-6.40977e-13
6.03678e-13
-3.29856e-11
3.30573e-11
-3.34952e-13
-3.28549e-11
7.72166e-11
-4.47896e-11
0
3.84835e-11
1.97113e-11
4.19256e-12
1.19521e-13
-4.06302e-11
1.55286e-11
1.78987e-11
-2.09546e-11
-1.33754e-12
3.43097e-12
-1.49254e-13
2.00078e-13
-1.43305e-13
-4.91682e-13
-1.4159e-13
-4.43121e-14
1.62731e-11
1.64738e-11
-1.7018e-11
-1.70177e-11
-5.96872e-12
-1.53563e-11
-1.07264e-11
1.00695e-11
8.89217e-14
2.16181e-13
1.41751e-14
-2.2528e-13
-8.92952e-13
-2.04474e-11
3.83674e-11
-8.17337e-12
6.17961e-11
-5.78388e-13
6.93153e-13
6.88592e-11
-5.52153e-14
4.49813e-12
1.79548e-13
4.44542e-13
0
-8.63925e-14
2.62572e-13
1.73961e-12
7.33903e-12
7.31788e-13
3.43746e-11
2.79849e-11
-2.95096e-11
-1.22945e-11
0
5.3419e-13
-8.38908e-13
-1.46326e-13
-1.46374e-13
2.99422e-11
2.46867e-11
2.73676e-13
3.58116e-11
-7.19345e-12
2.74111e-11
3.23955e-11
-1.43637e-13
-5.08987e-11
1.31915e-11
2.10477e-11
2.12943e-11
4.00976e-11
-8.53257e-11
4.56558e-11
-3.9154e-14
3.76463e-13
-9.45031e-13
3.23699e-11
1.04519e-12
2.98556e-13
4.76275e-13
3.28764e-13
3.52187e-13
-5.80745e-13
-1.37716e-13
-1.96609e-11
-1.92823e-11
2.01508e-11
1.91107e-11
0
7.85966e-13
2.74578e-13
-1.06664e-12
-1.03418e-13
9.11408e-14
3.75572e-13
-1.41693e-13
-3.98657e-13
0
8.20927e-12
3.5245e-11
1.19551e-12
-1.62657e-13
1.07771e-12
-1.59528e-12
5.94631e-13
3.5265e-13
-1.03686e-13
0
-6.9901e-12
4.23046e-11
6.13401e-11
6.4614e-13
7.69082e-11
4.75581e-11
1.53832e-12
3.40979e-13
6.76788e-11
-1.33922e-12
7.55292e-12
-1.93353e-11
-3.86023e-11
4.16524e-11
-5.18729e-12
-8.5817e-12
9.36456e-12
-1.11685e-10
1.56852e-11
-1.0514e-11
2.95935e-13
9.66884e-13
-1.82836e-11
1.78122e-11
-5.47965e-12
0
3.71087e-13
5.62378e-11
-7.04062e-12
5.63352e-12
2.97525e-11
2.87525e-11
2.11755e-11
3.71216e-13
0
1.49303e-13
-1.65611e-13
-3.11374e-11
2.91676e-11
3.22067e-12
-3.39658e-11
3.27138e-11
1.68822e-12
-1.79625e-14
2.12083e-11
-2.56662e-11
2.97136e-12
2.8535e-11
-3.09592e-13
1.43707e-14
-5.78635e-14
5.68876e-12
-2.53582e-13
-5.35002e-12
0
1.5781e-11
1.65847e-11
9.23733e-13
-3.71776e-13
-7.89936e-13
1.96607e-14
3.71239e-11
4.64794e-13
-3.69893e-11
1.48878e-13
0
1.25791e-12
-1.60789e-13
-2.3707e-12
1.48326e-12
5.7408e-13
-2.09926e-13
3.36384e-13
-5.15353e-13
5.50786e-12
-1.1141e-11
5.88762e-11
-4.79458e-11
8.86606e-13
3.16755e-13
-2.52619e-13
-1.65035e-11
3.01609e-11
-2.97171e-11
0
-3.18809e-11
-6.31074e-11
3.52906e-11
2.4742e-13
-9.18068e-13
6.91745e-13
3.31185e-11
2.17861e-11
1.51573e-12
2.04702e-11
-2.95007e-11
-2.2031e-11
-1.30053e-11
4.75584e-11
-4.36648e-11
3.6851e-13
-3.41226e-11
-1.88068e-11
-1.42502e-13
6.82177e-12
5.93014e-12
-1.09995e-11
5.83563e-13
-7.40489e-13
2.20603e-12
4.06165e-11
9.96917e-13
-6.07622e-11
4.04327e-11
-1.34966e-11
1.48309e-13
-3.5718e-11
4.99346e-11
1.87753e-11
9.51844e-13
1.40006e-13
-5.27111e-13
-1.99268e-11
-3.19073e-11
-4.89643e-12
-2.97167e-13
-5.14562e-11
6.01839e-11
-8.8064e-11
5.36655e-13
-4.81934e-12
-1.09114e-12
7.48194e-11
3.04327e-11
-5.05393e-12
-4.15352e-11
-6.92642e-11
3.09025e-11
1.60565e-13
-3.99565e-11
4.04284e-11
1.20305e-13
-4.08517e-13
-5.25712e-13
4.91421e-12
2.97743e-13
2.16448e-13
2.37387e-13
1.85251e-11
-3.58121e-13
-1.99327e-13
7.80486e-14
-1.8228e-11
-5.96924e-13
-7.44531e-13
7.4233e-13
7.53648e-13
-1.90983e-13
-1.62513e-13
-3.32148e-14
2.07667e-11
1.65543e-11
-3.1288e-12
-1.65728e-11
-1.75189e-11
1.85447e-11
-1.17493e-14
-3.55544e-11
-2.65435e-11
1.73412e-11
2.60259e-12
-2.5122e-14
4.45785e-11
-5.10832e-12
-2.59665e-11
1.4814e-13
1.43271e-11
8.9923e-13
-1.84616e-12
8.82026e-13
-5.88236e-13
2.93845e-13
4.17362e-11
-4.24049e-11
5.78078e-12
-1.47983e-13
1.33499e-11
-1.17645e-11
-1.47747e-13
1.16293e-12
-8.87228e-13
2.94639e-13
3.22368e-11
-1.46727e-11
-5.9202e-13
1.1984e-11
-4.61132e-12
-1.49522e-11
-7.21379e-13
-7.72294e-12
2.3336e-11
-5.4682e-12
1.20967e-11
-1.69705e-12
-7.39871e-13
1.62753e-11
-5.79214e-12
-1.06885e-11
-4.88124e-14
1.70225e-11
-3.21402e-11
1.85033e-11
-1.23821e-11
-1.98125e-11
-9.61878e-12
2.96003e-13
-2.6814e-11
4.8751e-12
-3.52213e-11
-5.5612e-13
1.84471e-11
1.17333e-11
-1.28043e-11
-7.78283e-12
2.45725e-11
1.55571e-11
-4.65328e-12
-2.09784e-11
1.4896e-13
-1.20566e-12
6.50497e-13
2.57971e-13
-3.41797e-11
-1.01198e-11
-1.60044e-11
-1.48373e-13
-5.77578e-12
-3.2212e-11
1.60407e-11
-5.82982e-13
4.66245e-13
1.89288e-11
-5.5461e-13
-1.82442e-11
0
4.45377e-13
3.99983e-13
-3.493e-13
1.81795e-11
6.746e-14
-1.87137e-11
-2.83018e-13
3.46064e-13
6.53503e-14
0
4.44611e-13
1.73517e-13
5.7683e-13
4.07985e-13
8.76147e-12
-1.53644e-13
-2.41522e-11
2.8816e-13
1.47819e-11
-2.96402e-13
3.62891e-11
1.65434e-11
-2.02135e-11
-6.31408e-13
-2.5991e-13
-1.2586e-12
1.80509e-13
1.14107e-12
-4.17292e-14
1.48118e-13
1.67241e-11
-1.07332e-12
-8.00521e-13
1.75961e-11
2.68648e-13
-2.21029e-13
2.03858e-11
2.13294e-11
-1.85538e-11
-1.89456e-11
2.54423e-11
6.81119e-13
-2.54055e-11
-3.68295e-12
-2.64452e-13
3.29172e-12
1.86248e-11
-3.19034e-14
-1.85952e-11
-1.4792e-13
0
2.54439e-11
6.2018e-14
-2.56837e-11
8.50351e-14
-3.24354e-13
2.00734e-11
-5.02248e-13
-2.27489e-11
-2.07046e-12
-2.0263e-11
-2.49315e-13
2.01752e-11
3.81401e-13
2.08464e-13
-6.06634e-13
-1.16568e-12
-1.29075e-13
8.36491e-13
0
-2.18933e-11
-2.22971e-11
1.54353e-11
-1.46396e-13
-1.60153e-11
6.41757e-13
-1.73651e-11
1.83332e-13
1.6953e-11
-2.95839e-13
-5.92027e-13
-5.15473e-13
1.52945e-11
-1.89901e-13
-3.24583e-11
-2.28627e-13
1.77091e-11
1.40419e-15
-1.50487e-11
-1.49485e-11
0
-3.61825e-14
1.72921e-13
-9.49666e-14
-1.15642e-13
1.87607e-11
-3.32495e-13
-1.85144e-11
1.30846e-13
-1.4812e-13
-4.29769e-12
1.68628e-11
2.13747e-11
-3.14531e-14
-2.16714e-13
1.72392e-14
3.68913e-13
-9.63062e-14
4.62847e-14
1.482e-13
2.96112e-13
-4.52739e-14
-1.94671e-11
7.42858e-12
1.93316e-11
-7.0718e-12
-2.60838e-13
1.73913e-11
-2.62067e-14
-1.74701e-11
-8.88041e-13
-2.58574e-11
-2.44781e-11
6.00512e-13
-5.45583e-13
8.86844e-14
8.50774e-13
6.18234e-13
1.45866e-11
1.46524e-11
-5.91781e-13
-3.80257e-13
-1.90893e-14
7.07258e-15
-1.0709e-13
-1.62056e-13
-3.16789e-14
5.52035e-14
1.64742e-11
1.62736e-11
9.76169e-12
5.37069e-13
-9.6947e-12
-1.08248e-12
1.6217e-13
4.61773e-13
-4.13004e-13
1.56998e-13
-7.43766e-14
-1.47892e-13
2.95779e-13
8.33771e-14
-1.64441e-13
1.16444e-13
-1.49896e-11
-1.56874e-13
1.50136e-11
-1.65824e-13
-5.05889e-12
-4.87976e-12
3.40143e-12
-1.67655e-11
-2.82975e-12
1.77519e-11
-1.60143e-11
-2.10075e-13
1.5338e-11
3.55012e-14
3.2104e-13
-1.47868e-13
-1.61213e-11
-1.65892e-11
-4.78201e-13
1.01257e-12
6.06522e-13
1.81501e-11
1.60767e-11
-3.63154e-11
-1.59265e-11
1.75982e-11
0
-6.11426e-13
1.7174e-14
7.4962e-13
4.48824e-14
-2.2761e-13
2.61846e-13
-3.12747e-14
-1.34476e-13
0
0
-5.52456e-14
-4.66818e-13
-1.70326e-11
5.58015e-13
1.73848e-11
-6.47484e-14
-3.41635e-13
1.13803e-13
0
8.58665e-12
-1.73024e-11
-1.02749e-11
1.70388e-11
2.13817e-11
1.53358e-11
-2.14752e-11
-1.62486e-11
-6.4293e-14
1.4804e-13
5.91907e-13
7.84956e-12
1.53261e-13
-7.40965e-12
-1.64833e-11
4.66853e-13
3.89956e-11
-6.83226e-13
-2.25637e-11
0
0
2.71149e-13
1.67085e-14
3.10854e-14
-2.3153e-13
-2.79468e-13
5.10439e-13
6.40489e-14
-5.1404e-13
0
-1.76024e-11
-1.83207e-11
-1.02086e-12
-4.26505e-13
5.12745e-13
4.96406e-13
-2.01092e-11
-2.5777e-13
2.0146e-11
0
1.47897e-13
2.23326e-11
2.66534e-13
-2.13057e-11
-1.64523e-13
-1.50267e-12
-1.67589e-13
4.41048e-13
-2.07021e-14
-1.47881e-13
-4.43663e-13
5.29256e-14
2.32329e-13
5.08608e-13
1.84563e-11
-2.26973e-13
-1.87878e-11
-2.28115e-11
-2.05044e-11
2.218e-12
1.18312e-11
-4.03169e-12
-2.33046e-13
1.61485e-11
4.08264e-13
9.93738e-14
-5.87538e-13
1.14349e-13
-5.13255e-14
0
-1.81913e-11
-3.89237e-11
-2.4554e-13
2.07853e-11
4.06523e-13
-8.83538e-14
-2.72998e-13
-2.15164e-11
-1.32104e-14
2.14414e-11
-1.47913e-13
-2.22922e-11
-1.92837e-11
2.18884e-11
1.91021e-11
2.1828e-13
2.42957e-13
-6.37828e-13
2.57364e-13
5.91577e-13
-1.71614e-11
-1.72332e-11
1.1924e-13
-1.39011e-13
-1.14146e-13
-3.18064e-14
-2.02002e-11
3.08546e-14
2.02262e-11
0
1.47969e-13
-1.33588e-13
2.87526e-13
5.16652e-14
-6.69721e-13
-1.98209e-13
5.67355e-13
8.18525e-14
-2.8405e-13
-2.95913e-13
-1.77516e-11
-7.41334e-13
1.72996e-11
1.44463e-13
2.64437e-18
-2.40494e-13
3.55826e-13
1.54856e-13
-9.50576e-14
0
-2.95833e-13
4.39905e-14
-1.83114e-12
-2.6882e-13
2.24866e-12
-1.19647e-13
1.57468e-13
3.46454e-14
-3.26041e-14
1.47904e-13
1.61209e-11
2.1762e-13
-1.62595e-11
2.14056e-11
5.63977e-13
-2.16172e-12
-1.73596e-12
-1.92285e-11
2.15085e-11
2.05561e-11
0
-1.65362e-11
-8.21293e-14
1.66856e-11
5.30003e-13
8.92895e-14
-2.00765e-11
1.19656e-11
1.92427e-11
-1.19773e-11
0