/*--------------------------------*- C++ -*----------------------------------*\
  =========                 |
  \\      /  F ield         | OpenFOAM: The Open Source CFD Toolbox
   \\    /   O peration     | Website:  https://openfoam.org
    \\  /    A nd           | Version:  10
     \\/     M anipulation  |
\*---------------------------------------------------------------------------*/
FoamFile
{
    format      ascii;
    class       volScalarField;
    location    "0.9";
    object      gradTy;
}
// * * * * * * * * * * * * * * * * * * * * * * * * * * * * * * * * * * * * * //

dimensions      [0 -1 0 1 0 0 0];

internalField   nonuniform List<scalar> 
46825
(
-2.98172e-13
0
0
2.00767e-11
1.03996e-12
-1.41138e-11
4.46156e-13
-1.65321e-11
1.49078e-13
7.45498e-13
1.69783e-11
1.18533e-14
2.19494e-11
3.65311e-11
7.38229e-14
-1.40588e-11
7.32036e-13
3.96073e-12
3.02266e-13
7.74353e-13
6.60255e-13
-1.8223e-13
6.31827e-13
-1.88286e-11
-1.43288e-12
-2.05671e-13
1.74917e-13
4.4629e-11
-2.06028e-13
-5.85833e-13
-3.4162e-11
-3.38221e-13
-2.16305e-11
-1.66649e-11
-3.33983e-14
1.91483e-13
-2.78375e-14
2.32865e-11
-4.84493e-13
3.15537e-13
1.65917e-11
-4.81572e-14
1.60304e-11
1.91065e-11
4.7537e-14
1.9498e-11
-6.12338e-15
-2.33781e-11
-4.09473e-14
-2.41753e-13
1.73628e-11
1.54212e-11
6.94778e-12
1.65108e-11
-6.35378e-13
1.04265e-12
2.12971e-13
-2.26282e-11
-1.08153e-13
-1.05111e-13
-1.6141e-11
-9.83334e-15
-1.64526e-11
9.37668e-12
1.79306e-13
-1.98699e-11
6.18978e-14
-1.73107e-11
1.11633e-13
2.84099e-13
-6.28292e-13
-1.49878e-11
-2.24914e-11
-1.66484e-11
3.55252e-13
-7.91219e-13
-1.23557e-13
6.26339e-13
4.8775e-14
-3.83379e-13
-1.46552e-13
3.56492e-13
-4.26781e-14
-1.02668e-11
2.53838e-14
1.73071e-14
-4.04918e-13
1.69889e-11
4.474e-14
2.02029e-14
0
-1.49096e-13
1.51938e-11
-7.43695e-13
0
0
2.9749e-13
-1.04278e-12
0
-2.98252e-13
0
1.49346e-13
0
-2.05945e-11
1.53663e-11
0
-5.96944e-13
-1.55313e-11
0
-1.61153e-11
-5.24939e-15
-5.69856e-15
1.08869e-11
6.87949e-12
-5.53444e-12
-5.42235e-12
-2.61727e-13
-3.07164e-11
-1.70891e-13
-1.66745e-11
3.11807e-14
-3.7664e-13
-4.25424e-11
2.7597e-11
-2.29018e-11
-8.45465e-13
-9.43289e-13
1.09477e-11
1.02124e-13
-1.44286e-13
-2.18545e-13
1.54968e-13
2.20548e-12
-1.28548e-12
2.74277e-12
2.24128e-12
6.73401e-13
-2.39372e-13
1.0049e-12
7.27042e-14
-7.61812e-14
8.59653e-14
3.98674e-11
-2.15691e-13
3.7547e-11
3.71688e-11
6.12738e-13
1.94715e-13
-1.23672e-13
3.57232e-13
-1.65343e-14
1.55335e-11
-3.75381e-13
1.46323e-13
-3.80534e-11
-3.78354e-11
5.6391e-11
3.23969e-13
-1.05148e-12
-3.70002e-14
3.37674e-13
-3.68121e-13
-3.09901e-13
-6.82798e-13
-4.28076e-13
-2.38508e-13
-5.70366e-11
3.36861e-11
-2.66533e-11
1.97463e-13
-5.24886e-12
-1.54728e-11
-3.41514e-11
-4.24274e-12
-3.58733e-11
-1.05323e-12
-3.99233e-13
-3.20273e-11
2.54991e-13
4.47594e-13
3.0193e-14
5.17091e-13
-9.72961e-13
8.22704e-13
1.08445e-11
5.23535e-12
-7.8533e-13
-8.42025e-12
2.68329e-11
-1.8325e-11
5.07349e-12
4.48054e-13
-4.47996e-13
1.49228e-13
4.47528e-13
-1.65589e-11
4.47715e-13
1.74735e-11
0
-1.80568e-11
-4.59423e-11
-1.49274e-13
-2.86369e-11
-1.19217e-12
2.22083e-11
1.34142e-12
-4.57477e-11
7.75593e-12
1.49293e-13
2.98382e-13
-2.00895e-11
4.10833e-13
-2.85205e-11
-3.25768e-11
-1.47037e-11
-3.67872e-12
-3.48747e-11
-4.71352e-13
-2.06332e-13
2.47442e-13
4.37792e-11
2.29886e-13
-3.89695e-11
4.50672e-10
7.4484e-10
6.86062e-10
7.54126e-10
-6.2098e-11
4.48129e-13
2.12117e-11
-3.37174e-12
1.03367e-13
7.62226e-11
-2.55928e-07
-3.0187e-07
-3.08614e-07
-2.62072e-07
-1.45609e-08
-4.49415e-13
-2.69023e-11
-2.12489e-11
-9.16074e-14
-8.08392e-11
-1.25071e-08
9.24113e-08
9.80686e-08
7.47416e-08
-2.95751e-09
-5.02244e-13
-2.12998e-11
-1.16781e-13
3.7207e-11
8.95246e-11
3.99722e-09
-2.2001e-08
-2.28579e-08
-1.86372e-08
9.004e-10
1.99303e-12
2.69359e-11
1.6455e-13
-8.20952e-11
-3.98083e-11
5.95923e-08
-2.6667e-07
-2.76655e-07
-2.26849e-07
9.71805e-09
-1.9247e-12
1.5809e-11
-2.36676e-13
9.59685e-11
4.23393e-13
1.11514e-08
5.72907e-08
5.89468e-08
5.19871e-08
-1.123e-10
9.23132e-13
6.65081e-13
5.83028e-14
-5.08771e-11
-6.3239e-12
3.33793e-11
6.50487e-13
-1.94116e-11
5.06539e-13
1.98731e-12
-6.91671e-13
-1.55158e-11
-1.49171e-13
0
0
-1.32579e-11
-6.55622e-12
2.54806e-11
4.76728e-12
0
-6.86606e-12
-4.47561e-13
-3.21426e-11
2.58601e-11
-5.9072e-13
-1.62892e-11
-2.06596e-11
-3.45768e-11
-2.55289e-11
-9.89433e-12
4.31097e-12
-1.48854e-13
-1.26065e-13
5.96077e-11
2.87562e-11
1.43162e-08
1.03371e-08
1.02321e-08
1.06294e-08
8.93276e-09
-1.1421e-12
-1.96021e-11
3.4659e-11
-3.46256e-11
-1.76379e-09
0.000101937
0.000105652
0.000106225
0.000105068
0.000103479
8.9431e-09
2.8836e-15
3.04586e-13
-3.14442e-11
-4.00202e-07
-1.05162
-1.64305
-1.65182
-1.63013
0.215711
3.43314e-08
2.79795e-12
-1.99679e-11
-6.24845e-11
-4.15511e-09
-0.00769918
-0.0260148
-0.0271085
-0.0247127
-0.0195329
1.97339e-09
1.73622e-11
-9.23649e-13
2.77615e-11
8.23244e-09
0.000701525
0.0016983
0.00166894
0.00166357
-0.0213018
-3.19719e-10
1.67269e-11
1.68742e-11
2.88042e-11
1.37297e-08
0.0417696
0.0750391
0.0759103
0.0752111
-0.023992
-7.03888e-09
-1.80377e-11
5.74607e-13
5.96332e-11
1.0336e-06
-0.0322582
1.14408
1.14962
1.13042
-0.0715546
-6.2786e-08
-1.31473e-13
-2.19073e-13
4.48543e-13
6.96395e-08
5.8267e-06
5.31566e-06
5.27156e-06
5.38371e-06
3.76183e-06
-2.63036e-12
1.25973e-12
-1.48808e-13
-2.89716e-11
1.31365e-11
6.15966e-12
2.197e-11
1.91874e-11
9.24008e-12
2.11093e-11
5.05256e-12
4.46502e-13
-2.97237e-13
7.86513e-12
-7.79127e-12
-1.17497e-10
-1.41277e-10
-1.07425e-10
-1.07855e-10
1.51364e-11
-3.33957e-11
0
3.33437e-12
1.77909e-13
-1.13626e-09
-4.01274e-07
-6.25524e-07
-6.03124e-07
-6.57961e-07
4.21718e-08
-2.4381e-11
-1.64611e-11
3.75559e-13
5.77411e-11
-1.7621e-06
0.111428
-1.29101
-1.29443
-1.28891
0.00896624
2.3222e-08
-1.76566e-11
-2.87489e-12
4.74541e-09
0.0287429
1.19264e-05
1.70614e-11
-1.67275e-11
1.79552e-09
0.000774442
2.07329e-06
4.09871e-11
7.7084e-14
-2.83205e-10
0.000131808
-2.23451e-07
-5.39561e-13
1.62464e-11
-4.25497e-09
-0.00127843
-6.6177e-06
-2.45241e-11
-1.59057e-11
3.75063e-10
0.00136974
3.12979e-06
-1.7634e-11
-9.10965e-13
-3.24212e-13
5.97584e-07
0.00121289
0.00149092
0.00149482
0.00147738
-7.86472e-05
6.34704e-10
1.07748e-11
1.45647e-11
8.90069e-13
-2.49734e-11
8.30107e-11
1.17084e-10
1.04798e-10
8.38835e-11
5.58263e-12
1.33541e-11
2.83922e-11
2.05158e-11
2.1542e-11
-1.50085e-11
-7.18377e-11
-1.02636e-10
-8.91984e-11
-6.94748e-11
6.76453e-12
5.34852e-12
-1.4871e-13
-1.60086e-13
2.12469e-11
-1.21881e-09
-2.96646e-07
-6.64496e-07
-6.2986e-07
-6.977e-07
4.37323e-08
-7.4279e-13
-2.05399e-13
-2.10181e-11
2.88023e-11
-1.89664e-06
-1.09225
-1.34856
-1.35229
-1.34461
0.0102003
5.7249e-08
-1.90018e-11
5.71584e-13
5.47448e-09
0.0358801
2.55641e-05
2.36311e-11
6.03502e-13
2.55386e-09
0.000999137
2.32665e-06
3.80092e-11
-1.77896e-11
-2.91597e-10
0.000205417
-2.92189e-07
-3.87266e-11
-5.22001e-13
-5.82776e-09
-0.00176961
-8.65688e-06
-2.94173e-11
-1.17527e-11
5.47385e-10
0.00147835
3.52615e-06
1.57522e-11
4.70576e-13
-3.56756e-13
6.32255e-07
0.00124527
0.00161137
0.00161693
0.00158794
-8.40063e-05
7.92109e-10
2.71677e-11
2.91392e-11
9.05852e-12
-3.21959e-11
7.35228e-11
1.09096e-10
1.1227e-10
7.30871e-11
-3.88122e-11
-2.09422e-11
1.65054e-11
3.94186e-11
3.25624e-11
-3.01871e-11
-7.08594e-11
-9.18476e-11
-8.51953e-11
-4.49905e-11
3.53237e-12
2.15615e-11
-1.48796e-13
1.56501e-11
5.6642e-11
-1.31013e-09
-2.76046e-07
-6.26799e-07
-6.04817e-07
-6.76153e-07
4.40381e-08
1.95034e-11
-3.29272e-13
-2.74505e-12
2.43938e-11
-1.91746e-06
-1.09428
-1.35133
-1.35501
-1.34693
0.010235
5.83433e-08
-1.67847e-13
6.46634e-13
5.21332e-09
0.0360616
2.56627e-05
1.19748e-12
-1.99293e-11
2.53986e-09
0.00100009
2.18937e-06
5.78809e-14
-8.58808e-13
-3.73895e-10
7.00118e-05
-3.86194e-07
-2.57769e-13
-1.26813e-12
-5.76002e-09
-0.00190673
-8.93908e-06
2.80103e-13
4.85684e-13
4.92254e-10
0.00148156
3.52649e-06
3.50754e-14
3.21e-13
-2.38677e-13
6.34514e-07
0.00124875
0.00161744
0.00162313
0.00159328
-8.45258e-05
8.09821e-10
-6.26214e-13
-2.97522e-13
-1.4863e-13
2.78098e-11
7.06666e-11
7.82491e-11
9.61516e-11
6.95045e-11
5.73852e-12
-5.50015e-12
2.97578e-13
2.97648e-13
-3.49605e-11
1.01663e-11
-7.23574e-11
-9.40785e-11
-1.10252e-10
-7.53705e-11
2.78331e-11
-2.52923e-11
1.48866e-13
-2.06211e-11
-3.43102e-11
9.75555e-11
-2.73952e-07
-6.28828e-07
-6.01937e-07
-6.74917e-07
4.37989e-08
-2.54992e-11
1.82588e-13
-1.61349e-13
5.25676e-12
-1.86635e-06
-1.09427
-1.35144
-1.35516
-1.34712
0.0102812
5.82386e-08
-4.19841e-14
4.84102e-12
5.32226e-09
0.0360097
2.56475e-05
4.85662e-13
-2.18921e-13
2.59638e-09
0.000999961
2.15183e-06
1.34115e-13
1.59438e-11
-3.78498e-10
7.00329e-05
-4.96579e-07
-2.80551e-13
-5.78861e-13
-5.79347e-09
-0.00190666
-1.22572e-05
-9.15459e-13
-7.56742e-14
5.49059e-10
0.0014901
1.5358e-06
-3.45304e-15
-2.35481e-13
2.71196e-13
6.31578e-07
0.00124917
0.00161814
0.0016238
0.00159393
-8.45206e-05
6.38979e-10
1.51103e-13
1.48836e-13
-1.63584e-11
-5.5946e-12
5.83697e-11
7.41151e-11
1.00988e-10
7.7246e-11
1.06007e-11
6.24673e-12
-1.48862e-13
-2.15877e-11
2.53e-12
4.42262e-12
-1.0022e-10
-1.31559e-10
-9.4211e-11
-1.089e-10
-2.21036e-12
1.48838e-13
0
-3.94387e-11
-4.10897e-13
7.28118e-11
-2.86498e-07
-6.47797e-07
-6.25809e-07
-6.93927e-07
4.39667e-08
-9.24117e-13
5.24281e-13
1.65669e-11
1.26298e-11
-1.85655e-06
-1.09384
-1.35055
-1.35419
-1.34619
0.0102229
5.82645e-08
2.78244e-13
1.84112e-11
5.51596e-09
0.0359966
2.54404e-05
7.08414e-13
2.74438e-13
2.51234e-09
0.000999334
2.09666e-06
-1.64886e-11
-5.44971e-13
-3.25847e-10
7.01664e-05
-4.80325e-07
-2.79582e-11
-1.69648e-11
-5.7907e-09
-0.00190564
-9.78613e-06
1.63553e-11
5.64307e-14
5.43677e-10
0.00148197
7.67362e-06
2.79089e-11
-9.03584e-15
3.43659e-11
6.33069e-07
0.00124799
0.00161428
0.00161977
0.00159076
-8.4101e-05
2.39543e-11
-1.28509e-13
1.48893e-13
-4.6118e-12
3.38829e-11
7.03602e-11
1.01144e-10
1.16771e-10
7.53029e-11
3.53574e-12
2.93114e-11
0
0
7.44302e-13
-1.0179e-11
-9.03752e-12
-2.2356e-11
-5.08053e-12
-2.47726e-12
-5.0145e-12
5.50868e-12
1.4896e-13
2.12154e-14
1.10269e-13
7.19087e-11
-1.50207e-07
-1.91421e-07
-1.63334e-07
-2.47766e-07
3.82164e-08
4.07022e-13
-3.16941e-13
1.59296e-11
4.24893e-11
-1.8355e-06
-1.07632
-1.3116
-1.31443
-1.30839
0.00920118
5.16691e-08
-6.14262e-13
3.09231e-13
2.46383e-09
0.030467
1.80248e-05
1.4641e-13
-1.59413e-11
5.88094e-10
0.00078051
1.29831e-06
4.02753e-13
-1.98697e-11
-5.28698e-11
6.77215e-05
-2.27449e-07
2.53165e-13
2.91804e-13
-1.7503e-09
-0.00134864
-5.18531e-06
-4.00754e-13
1.90149e-11
3.8283e-10
0.00144754
2.70904e-06
-1.04282e-13
-2.04025e-13
1.10646e-12
6.17785e-07
0.00107749
0.0012231
0.00122527
0.00122023
-7.43264e-05
7.37488e-10
1.1075e-13
-1.4893e-13
2.97625e-13
1.04684e-11
-2.2583e-11
-1.7416e-12
1.01594e-12
-2.33118e-12
-3.18489e-11
-2.9768e-13
0
4.76616e-12
2.56055e-11
1.47498e-13
5.24667e-12
-6.38719e-12
5.51612e-12
-4.35733e-11
0
1.93559e-12
1.48968e-13
-1.6838e-11
3.18335e-11
3.52927e-11
1.2501e-09
1.21443e-09
1.228e-09
1.18582e-09
2.28294e-10
-3.01098e-12
2.86784e-13
-2.05351e-11
-2.08361e-12
-2.46871e-07
-0.000447205
-0.000461444
-0.000462114
-0.000460985
-0.000414988
1.10049e-09
1.55973e-11
1.49408e-13
2.87615e-11
3.35228e-06
-1.37526e-08
2.18416e-13
-3.45508e-13
-4.65428e-11
1.17576e-07
-1.01382e-09
-1.63581e-11
-1.71729e-11
3.23914e-11
-1.72971e-08
1.35894e-10
-3.98452e-13
5.62746e-13
-2.50599e-11
-1.71112e-07
3.61924e-09
1.14129e-13
1.71433e-11
5.00768e-12
-1.46714e-05
1.75929e-08
7.84078e-13
-3.15902e-13
8.38925e-12
4.1327e-08
-1.44533e-06
-1.51511e-06
-1.51952e-06
-1.4988e-06
-6.79128e-07
1.14424e-11
5.60191e-13
1.48953e-13
-1.33946e-12
2.21178e-12
-2.91413e-13
2.9028e-13
-1.52397e-11
-1.45704e-13
7.66765e-12
0
1.48964e-13
-4.46831e-13
0
0
-8.72492e-13
-2.82232e-11
-3.67628e-11
5.23507e-12
-1.7835e-11
9.37912e-12
1.19166e-12
1.56957e-14
2.98138e-13
-3.4446e-11
-2.92748e-13
-3.31046e-11
-5.27754e-12
-2.95494e-11
-2.46447e-11
2.20993e-11
1.0182e-12
6.48372e-13
0
6.11983e-13
6.10962e-13
-5.11721e-13
2.26124e-13
4.21632e-11
-2.64563e-11
6.02678e-13
-1.88713e-11
2.23997e-11
3.71775e-11
8.16062e-11
-4.92966e-13
-7.99582e-13
-1.84222e-13
-6.82578e-11
-1.12023e-13
-2.62492e-13
1.86372e-11
-2.20576e-11
3.1078e-11
-1.63957e-14
-4.41665e-11
-1.84171e-11
2.4226e-11
2.92563e-13
-4.91446e-13
4.36101e-11
-1.68232e-11
-3.21263e-13
-3.76589e-11
-1.35657e-10
8.77553e-13
1.94092e-11
-2.41815e-11
3.79272e-11
-1.45126e-11
2.17587e-13
1.6017e-11
1.46546e-12
2.17835e-11
-7.31297e-14
4.79048e-11
1.70052e-11
1.48945e-13
6.39912e-12
-1.47362e-13
0
5.3545e-12
6.51216e-12
5.52487e-12
-7.36742e-13
-3.66127e-11
0
0
6.17684e-11
-5.5981e-12
-5.66558e-12
2.0525e-11
-1.76343e-11
-8.42611e-12
8.84017e-13
-9.52657e-12
2.97885e-13
-4.96982e-14
4.47254e-11
4.32877e-13
2.92689e-13
2.1963e-11
-1.81712e-11
0
3.8942e-11
1.94145e-11
5.85606e-14
-6.84649e-14
5.95729e-12
-8.20395e-11
-7.89485e-11
-1.99292e-11
2.77683e-11
2.17858e-11
-5.41543e-11
3.10117e-12
-3.34869e-13
-9.57478e-14
-2.92689e-13
0
1.37669e-11
-2.70807e-13
1.22089e-13
0
7.37223e-11
2.26394e-13
1.12064e-13
-6.7328e-13
0
-7.68057e-11
8.56335e-14
1.68335e-11
9.7605e-14
-5.55649e-12
-5.888e-13
4.43083e-11
-2.39762e-11
1.73514e-11
5.88468e-12
1.01274e-12
-4.50294e-11
-1.70287e-11
1.70662e-11
-4.77877e-12
0
9.36505e-12
2.1968e-13
1.21076e-11
8.09544e-12
-1.442e-11
0
2.38569e-11
2.97867e-13
-4.46412e-12
-2.4747e-11
0
2.0378e-11
1.37299e-11
-4.35757e-13
-3.68228e-12
-5.50603e-12
5.95761e-13
5.95711e-13
6.25094e-12
0
6.24538e-12
1.18493e-11
-5.20218e-12
-4.35738e-13
-1.64991e-11
-2.8577e-11
2.1893e-11
8.98754e-13
6.26811e-13
-4.26482e-13
-4.44955e-13
1.25944e-11
-2.93136e-13
-5.84976e-13
-2.28717e-11
-2.95718e-11
2.45571e-13
-3.00012e-13
0
-7.40918e-11
-7.78686e-13
1.29622e-12
1.18199e-12
1.17784e-12
4.66658e-11
-3.01977e-13
-6.47829e-12
-1.78218e-11
-2.22964e-14
-4.06835e-12
1.70335e-13
-2.40529e-13
-7.54215e-14
-3.42661e-11
-2.94955e-12
3.79719e-13
-1.54716e-11
1.77631e-11
3.3709e-11
-7.21008e-11
4.63153e-14
1.79872e-11
-3.23955e-13
5.84978e-13
1.76675e-12
1.95686e-12
-1.83244e-13
1.89822e-11
-5.88444e-13
-9.79786e-11
-8.78454e-13
-1.75757e-11
2.51395e-13
1.7623e-11
8.18602e-13
4.7237e-12
-4.39619e-13
4.77207e-12
-1.70001e-11
-7.02853e-12
-3.1467e-11
2.87134e-13
-1.92118e-11
-1.10109e-11
5.15469e-12
5.80911e-13
-7.22448e-12
-5.20161e-12
-2.04767e-11
1.92936e-11
1.93445e-12
4.46789e-13
2.82973e-12
4.46497e-13
1.47319e-13
7.4096e-12
-2.96354e-11
4.33689e-13
-1.58361e-11
5.30352e-12
3.86969e-12
-1.84683e-11
-2.09404e-11
2.80355e-12
-4.19483e-13
1.60924e-13
-2.92591e-11
1.16326e-11
2.42733e-11
-1.26743e-11
1.70878e-13
-1.91248e-11
2.01742e-12
-2.08499e-12
6.64618e-11
6.6968e-13
1.13596e-11
-1.77289e-12
-5.00555e-11
4.47954e-11
0
-5.14921e-14
2.36546e-11
-7.53343e-13
5.81142e-13
-1.96449e-13
-1.29802e-13
2.28966e-11
1.45194e-13
2.35958e-12
-3.38766e-11
-2.00521e-13
-4.97055e-13
9.11412e-13
-1.77288e-11
3.23615e-11
3.79172e-13
-2.42139e-11
-1.16978e-12
0
-3.66993e-13
1.53535e-11
-1.74254e-11
5.91333e-11
2.10214e-12
-3.45469e-11
-1.63926e-11
-5.30953e-13
-5.83829e-11
-3.86841e-11
-1.12639e-11
1.04753e-11
1.90832e-11
-3.48673e-11
2.6427e-11
3.63087e-11
-1.52083e-11
1.74249e-11
-8.92798e-12
0
-2.61476e-11
-1.44546e-13
3.87386e-11
1.45267e-13
1.4729e-13
2.08327e-12
1.6085e-11
1.77239e-11
1.22052e-11
1.47385e-13
4.36417e-12
1.02825e-11
6.51698e-12
2.03656e-12
4.86362e-12
-1.48847e-13
-3.21731e-11
-1.65131e-11
-1.16252e-11
1.68193e-12
-1.05717e-12
-1.1646e-11
2.93072e-13
1.8621e-12
-9.8755e-12
-1.13459e-11
-1.63945e-11
-1.70195e-11
-2.38193e-12
-3.51429e-12
-9.21145e-13
3.17723e-13
0
5.88424e-13
-2.27486e-11
0
1.53268e-11
1.69865e-11
9.11151e-13
-7.20214e-11
-4.57179e-13
-1.20308e-13
1.36889e-13
6.76015e-13
-6.71902e-11
-5.35469e-14
-3.7199e-13
1.67603e-11
0
0
-1.969e-13
1.41277e-13
-4.20772e-13
-4.32998e-11
-7.17814e-11
1.13845e-14
2.49446e-13
3.46865e-13
4.23504e-11
1.43067e-12
2.06847e-12
-2.95325e-13
1.95538e-13
1.05912e-12
-1.15273e-12
-1.21234e-11
8.77821e-12
3.66451e-12
1.12936e-11
1.17016e-11
-4.79971e-13
-8.45575e-14
-1.68311e-11
4.70238e-11
6.33624e-12
-4.94538e-12
-3.15674e-11
2.46167e-12
-5.23614e-12
6.48352e-12
3.3633e-11
2.97897e-13
0
0
1.43096e-11
1.99741e-11
-5.80951e-12
-1.11829e-11
8.60094e-12
2.95014e-13
7.14694e-12
1.48985e-13
1.91923e-13
-9.29157e-13
4.2322e-13
2.65383e-11
-1.26638e-12
-3.86167e-12
6.72794e-13
-3.27684e-13
3.42087e-11
1.44498e-13
1.58409e-14
8.92868e-13
-1.3221e-12
4.17555e-11
3.75443e-11
2.36659e-12
-3.01616e-11
-2.67922e-11
-3.49217e-11
-4.63744e-14
1.00494e-13
-7.92964e-13
7.04359e-11
2.70101e-13
-2.03696e-13
-2.88447e-13
4.40816e-11
-6.39307e-13
-7.41241e-13
1.16323e-13
-8.22548e-15
-4.37033e-11
0
-3.21495e-11
1.07782e-14
-3.26571e-13
-4.18674e-14
-6.03556e-11
3.25353e-11
-1.29257e-13
-6.68411e-14
2.86766e-13
-2.92666e-12
1.01936e-11
-1.5943e-11
9.75346e-14
5.31953e-12
6.03348e-13
-1.68073e-12
2.22563e-11
2.73156e-11
-3.35496e-11
-3.54301e-11
-9.80016e-12
-4.74488e-13
-1.4898e-13
-1.042e-12
1.4749e-13
0
-1.45213e-13
0
3.58556e-11
2.58079e-11
0
1.56435e-11
1.63862e-11
0
7.22972e-12
5.82853e-13
0
0
-6.26375e-12
-7.52283e-12
5.80797e-12
1.04302e-11
-9.06969e-12
2.32988e-13
4.25925e-11
-5.04344e-11
-4.17662e-11
4.76563e-11
3.92212e-11
5.01865e-14
-1.3889e-11
3.38188e-13
-1.60222e-11
0
-1.22756e-10
6.73583e-11
7.98405e-11
-3.13228e-12
2.0981e-11
-4.01768e-11
-1.34504e-12
-2.65673e-11
9.47403e-12
7.80204e-13
-1.55723e-13
1.65842e-12
-1.55904e-13
-4.46181e-15
-2.92675e-12
-1.12929e-11
-4.61377e-13
1.62881e-11
-4.03703e-14
5.88307e-13
1.35642e-12
-5.11443e-11
-1.73816e-11
-3.81224e-14
1.48784e-12
-8.17664e-11
6.24602e-11
-8.42095e-14
4.40775e-14
1.4653e-13
-1.05827e-12
-1.17893e-11
1.70245e-11
4.43438e-13
-3.90184e-15
-4.89023e-11
1.38587e-12
2.42491e-11
1.02627e-11
-2.2027e-13
1.19361e-11
6.51359e-13
1.53344e-13
4.47002e-13
-4.49633e-11
4.71922e-12
6.11729e-12
0
0
8.01025e-12
-8.11048e-12
-3.72206e-11
4.47002e-13
0
6.40228e-12
6.19365e-12
7.56363e-12
2.89397e-13
-5.78735e-13
6.25164e-12
1.03179e-12
-8.93382e-13
-2.23489e-11
-5.12939e-14
2.98173e-13
2.51962e-13
-3.99095e-11
-8.78508e-13
-3.39983e-11
-4.56288e-11
4.84064e-11
-2.98717e-13
-1.73509e-11
3.22345e-14
1.96584e-11
-6.83869e-14
5.35888e-11
1.11277e-10
8.1977e-11
5.82048e-11
-4.03021e-12
3.64139e-12
1.72212e-12
-5.82803e-13
-1.76547e-11
-9.78825e-11
-2.41134e-11
1.68907e-11
-1.1436e-13
-1.17123e-12
0
1.02719e-13
3.65533e-12
6.616e-13
3.42896e-11
0
-4.85259e-13
-3.838e-12
3.39584e-13
-3.42015e-11
0
-5.00941e-14
1.72983e-11
-1.91694e-11
2.94202e-13
7.54368e-11
-4.93729e-13
1.75619e-11
2.07094e-11
4.44297e-11
-2.08776e-11
1.52488e-12
-2.51661e-11
-3.18817e-11
2.747e-11
3.65113e-11
-4.7046e-14
2.00982e-11
3.97818e-11
1.54816e-11
3.38926e-12
1.77341e-11
1.4466e-13
8.67959e-13
6.10507e-12
-2.12189e-11
1.63745e-12
6.25799e-12
-5.95845e-13
3.87115e-12
-2.50653e-11
0
-1.44589e-13
-1.44574e-13
-7.99175e-12
-2.94722e-13
-7.59368e-12
0
2.10634e-12
1.70837e-11
-2.50481e-11
3.8059e-11
-3.08738e-13
-3.55753e-13
1.43826e-13
-3.91446e-11
5.51344e-11
-9.20029e-13
8.09721e-13
-7.92303e-11
1.22764e-12
-1.71552e-11
-1.04977e-10
2.65907e-11
-1.23658e-11
5.66074e-11
-3.86506e-11
2.15565e-11
-2.35364e-12
4.23367e-11
-4.63805e-12
1.38169e-12
1.33425e-12
-1.13496e-13
-4.41794e-13
0
-6.60385e-13
-2.16095e-11
2.63984e-14
-5.19277e-14
1.1227e-11
5.3024e-13
-5.58756e-12
-7.94578e-14
-3.2345e-13
0
-5.92087e-13
-1.07839e-13
-1.07924e-13
5.88444e-13
-1.81385e-12
-1.10931e-12
5.33872e-12
2.00647e-14
-2.87987e-11
-4.80148e-11
-1.19915e-11
-1.02554e-12
-4.77047e-12
-1.06497e-11
-2.19621e-13
-4.8775e-13
4.12129e-13
0
-5.95443e-12
2.13627e-11
-2.9928e-11
-6.21565e-12
-4.19186e-12
-6.3922e-12
-3.38848e-11
-2.35195e-11
0
0
-4.61699e-12
-7.66938e-12
2.66166e-11
-1.83728e-11
2.06853e-11
4.89912e-11
-9.87695e-12
5.95772e-13
2.0868e-12
3.17892e-13
1.13089e-12
4.69496e-11
2.62865e-11
-3.80116e-11
3.28405e-11
4.85367e-11
1.77791e-13
-1.90153e-11
-3.45546e-11
3.04575e-12
-8.93624e-13
-4.19245e-11
4.43846e-13
2.53628e-11
0
0
2.1026e-11
1.96293e-11
-1.98904e-11
-5.52248e-13
-1.52555e-13
1.44952e-11
-3.51576e-11
1.68225e-11
-2.68388e-12
-6.4169e-13
3.00815e-11
3.53468e-11
4.48879e-13
4.29539e-13
1.23343e-12
0
-3.10182e-11
5.38173e-14
-3.36157e-13
-1.38626e-12
0
3.15506e-11
-1.6619e-11
-2.92501e-11
0
-8.01192e-13
-2.92777e-13
-1.65845e-13
1.70436e-13
1.56892e-13
1.0815e-11
-1.39539e-11
-4.39568e-13
-2.90675e-11
-6.94463e-11
1.45684e-11
-4.40473e-13
1.65432e-11
2.9215e-11
-1.10193e-11
-1.47386e-13
1.45353e-13
-1.44632e-13
5.2067e-12
7.41291e-12
6.48475e-12
6.10517e-12
1.49064e-13
0
-7.45265e-13
1.0928e-11
3.48404e-11
2.75659e-11
-1.4507e-13
-1.1949e-11
2.14063e-11
4.91915e-11
1.92418e-11
-2.26188e-11
3.77361e-11
2.67651e-14
2.673e-11
6.60241e-11
1.65207e-12
-4.31626e-11
2.16438e-11
3.57811e-11
1.95054e-11
1.56297e-11
-3.87119e-11
-3.58591e-13
-1.00288e-12
-6.70204e-11
-9.18257e-13
5.49115e-11
1.58398e-12
-4.07462e-11
-1.58118e-11
4.38441e-11
1.52971e-13
2.8988e-12
3.90448e-11
1.26638e-14
-1.36926e-13
6.42082e-13
1.17918e-12
-1.46481e-14
1.61929e-11
-2.11288e-11
-3.52083e-13
1.58355e-10
-2.17627e-14
3.70033e-13
-3.19754e-11
-2.94245e-13
3.31117e-13
-2.16329e-13
-1.61376e-13
-5.42038e-14
5.88448e-13
3.2759e-12
-3.54271e-13
-3.86392e-13
-3.39085e-12
-3.8929e-11
-2.9704e-11
3.18772e-11
3.65854e-13
-1.39278e-12
-2.91481e-13
-2.26798e-12
2.334e-13
-1.46378e-12
-1.93909e-11
3.80057e-11
1.34319e-11
3.59883e-11
0
-2.34986e-11
2.56437e-11
5.01839e-12
-6.70687e-12
-1.6409e-12
0
4.47824e-13
-2.07518e-12
-5.72639e-12
5.85517e-13
0
1.46796e-13
-2.68249e-11
-2.74684e-11
-1.56742e-11
-2.89744e-11
-1.46813e-11
-7.11429e-12
1.0372e-11
1.8408e-13
5.38032e-13
4.49577e-11
-7.29585e-11
-6.3772e-11
6.34901e-13
-7.9016e-13
-5.96248e-13
1.09407e-10
-1.62446e-12
3.08887e-11
1.45265e-12
-5.88487e-11
8.53298e-11
4.22303e-11
1.62319e-11
1.30355e-11
-3.54738e-11
0
-3.67074e-11
3.08182e-14
-2.25432e-13
-6.72526e-13
3.95968e-12
3.68586e-11
2.07378e-13
-3.23239e-12
4.09554e-11
-5.82629e-13
3.93394e-13
-2.50151e-14
-2.41176e-11
-6.62473e-12
4.64463e-13
-3.29058e-11
1.17845e-13
3.47631e-12
2.65136e-12
-9.29149e-13
3.45113e-11
1.83827e-14
2.41502e-11
-7.6902e-13
5.40789e-12
-1.31297e-11
-3.67436e-11
-6.07259e-12
3.34836e-12
-8.7655e-13
-3.17229e-11
-1.19238e-13
1.55249e-11
0
0
-1.36506e-11
5.85444e-13
1.46363e-13
-1.46785e-13
-2.0894e-11
-1.38825e-11
1.49303e-13
-1.73086e-11
-1.35883e-11
-1.3396e-12
2.96481e-13
1.48086e-13
-1.48081e-13
-5.48455e-12
-5.95344e-13
0
1.49223e-13
-1.44469e-13
1.16274e-11
-1.34028e-12
3.17496e-11
4.5789e-14
9.18879e-13
-1.10332e-14
-6.24696e-14
-4.28195e-11
8.14836e-14
1.76872e-11
-3.31649e-11
2.23446e-12
-6.01899e-11
1.06719e-10
-4.32917e-11
4.44276e-11
2.04452e-11
5.69576e-11
-1.49964e-13
6.98903e-13
3.36351e-11
2.28099e-12
1.48678e-12
-2.73404e-13
-4.00172e-13
-5.18298e-11
2.753e-13
-3.30575e-11
7.91221e-14
-6.51675e-13
5.10819e-11
4.5245e-13
1.39565e-12
6.18102e-14
-2.18081e-11
3.84567e-13
-2.69457e-12
-1.10092e-12
-2.23896e-13
2.24243e-13
-5.92984e-13
-7.87952e-11
7.38953e-13
1.58834e-11
1.89655e-11
1.12131e-12
3.33457e-11
-1.55555e-11
1.62562e-11
-1.91948e-13
-2.66768e-12
-1.24011e-11
1.92876e-13
-1.26674e-13
-2.686e-12
-3.82189e-11
6.39843e-12
-2.51958e-12
0
-1.48084e-13
-5.63252e-12
7.44113e-12
0
-1.58214e-11
1.59299e-11
8.93367e-13
-5.9451e-13
-1.03854e-12
-5.93221e-12
4.44918e-13
7.7146e-12
-4.96384e-11
-2.97762e-13
-2.97756e-13
1.62059e-11
4.21434e-13
-3.59193e-12
-1.54854e-12
1.13424e-11
3.72488e-11
-3.2851e-11
1.46596e-12
-3.16907e-11
-3.43144e-13
1.52315e-11
-2.97143e-13
-3.74746e-11
1.67964e-11
5.56962e-12
-5.02117e-11
1.64842e-11
-4.08705e-11
-1.04018e-11
4.20603e-13
1.63653e-11
0
4.30282e-11
-1.14294e-11
-1.0369e-12
-1.97668e-11
1.62602e-12
1.81123e-12
6.71232e-11
1.9458e-13
-1.57658e-11
1.18708e-12
1.49711e-11
1.39787e-12
1.41622e-12
-4.26036e-11
9.32604e-13
8.36074e-12
-2.43128e-11
1.03241e-13
-1.60955e-11
-8.90667e-13
1.21277e-12
4.80493e-11
-1.02572e-12
7.859e-12
-1.87869e-12
-2.33843e-11
-7.35654e-13
-2.51602e-13
1.50698e-13
-2.96549e-13
1.11687e-12
-4.83438e-11
9.29322e-13
3.06723e-11
4.13652e-13
6.98164e-11
-5.08416e-11
-4.03997e-13
2.85293e-11
-1.34249e-12
-4.47192e-11
2.65454e-11
-2.84824e-11
1.1074e-12
-7.8943e-13
1.41293e-10
5.13732e-11
1.04734e-13
-4.5701e-13
1.01558e-11
-4.03924e-13
2.81856e-13
4.08368e-11
-5.18317e-11
3.43504e-11
-3.53347e-11
7.56001e-15
-6.78409e-13
-2.84345e-11
-6.69872e-12
8.32011e-12
1.48327e-13
2.52089e-11
-4.44888e-13
2.34388e-11
5.94417e-13
0
-5.95625e-13
5.93864e-13
1.8251e-11
-1.48185e-13
-1.73195e-11
-2.6194e-11
0
-4.47033e-11
-1.64479e-11
3.41269e-12
-5.34476e-12
4.81909e-13
8.5824e-14
7.07355e-12
-7.00736e-13
9.14889e-12
-5.64435e-12
-1.26135e-11
-9.52804e-12
-1.84755e-11
1.04329e-13
3.04887e-14
-1.83165e-11
8.55469e-12
2.30318e-11
3.55397e-11
9.93094e-13
3.07526e-11
-3.6288e-13
-2.73651e-11
4.95885e-12
1.51131e-13
1.16455e-11
-2.34945e-12
0
-6.46072e-14
-1.33694e-12
7.981e-13
1.5297e-13
6.93309e-12
1.39477e-14
-6.28771e-14
1.61584e-11
-7.34971e-12
-2.95359e-13
2.46773e-11
-4.63904e-12
-1.35324e-11
1.88095e-13
-7.67923e-12
-1.70938e-11
1.86887e-11
6.66171e-12
1.17642e-12
0
5.40653e-12
1.33362e-13
3.1104e-13
3.99561e-11
-2.53117e-11
1.38299e-13
-4.73088e-13
-7.11836e-13
-2.85036e-11
2.94651e-13
-2.47721e-11
-6.37779e-12
-3.68614e-14
-3.9754e-11
7.44301e-12
1.33731e-12
-1.82864e-11
-1.87601e-11
2.90249e-11
-3.04777e-11
-2.98547e-11
1.13886e-11
-4.79746e-13
2.03075e-12
2.44393e-11
-9.70681e-14
1.22364e-13
-1.51608e-11
-3.55452e-11
4.76617e-12
2.70773e-11
2.2504e-12
1.84409e-13
5.50268e-12
-3.03166e-13
1.5612e-11
-1.48459e-13
2.96745e-13
1.18573e-11
0
1.8643e-11
4.43896e-13
-7.4002e-13
-1.83722e-11
0
0
-1.5265e-11
2.02938e-11
1.03614e-12
-1.47941e-13
0
-9.17102e-12
-1.18353e-12
1.49497e-11
0
0
-1.56075e-11
1.04171e-12
-1.72957e-11
-3.49488e-13
8.30587e-14
-8.92144e-12
-6.34885e-15
3.58192e-11
2.08559e-11
2.35351e-12
1.55007e-11
5.22488e-12
-3.08076e-13
-4.85317e-13
-3.43486e-12
1.77111e-13
1.03763e-12
1.84421e-11
2.60847e-13
1.66063e-13
1.64342e-11
-8.62888e-13
4.29538e-11
1.29004e-13
-9.6874e-14
-6.11559e-14
-1.74882e-13
-8.35573e-13
-2.20625e-11
-4.96096e-12
1.19052e-13
-4.5426e-11
-2.8503e-13
1.39747e-13
3.63174e-12
1.7239e-14
7.60959e-14
-1.94994e-11
9.89314e-14
-4.09776e-13
2.25074e-11
6.10515e-13
-2.56548e-11
1.59967e-11
-2.92487e-13
-1.97044e-13
6.65012e-13
-3.71932e-11
8.79805e-13
2.94474e-12
2.58837e-13
1.99257e-11
1.63967e-13
1.52954e-11
-3.75713e-13
-1.76137e-11
9.68298e-14
1.22544e-12
1.40095e-13
-1.49602e-11
-2.22588e-11
-3.9449e-13
2.44482e-13
-1.57509e-11
1.0301e-13
2.44347e-13
1.81866e-11
1.70386e-11
-5.01998e-13
3.21232e-13
-1.77876e-11
-2.14617e-11
-3.71599e-13
-1.54496e-11
8.69883e-14
1.70145e-11
-2.39356e-13
-1.1453e-13
-5.09729e-14
1.48871e-11
-1.68944e-11
-2.1477e-11
0
2.95826e-13
-2.95764e-13
-4.43633e-13
-1.84879e-11
1.47991e-13
1.48111e-13
1.482e-13
2.53176e-11
2.41262e-11
-4.43868e-13
1.95248e-11
-7.39513e-12
-5.916e-13
0
2.95897e-13
-1.68729e-11
1.49532e-11
7.09455e-13
4.84459e-14
-5.65023e-14
1.94972e-11
-7.50655e-12
-9.13914e-14
-2.54453e-14
-1.18156e-13
-1.71841e-11
1.6351e-11
-2.5472e-11
-1.47246e-11
1.06878e-12
-4.17138e-14
-3.72776e-13
4.45382e-13
4.89255e-14
-5.93636e-13
-6.42324e-13
-1.50045e-11
-6.0524e-13
1.18567e-13
1.32788e-14
-4.26668e-14
8.56719e-14
-1.48354e-11
-2.12926e-14
1.44624e-13
7.71734e-14
-2.14602e-11
-5.97316e-13
-6.75062e-12
-1.81891e-11
3.86099e-14
6.61987e-13
-1.58132e-11
-7.51756e-14
-3.40379e-13
-1.33469e-13
-1.55317e-13
1.59899e-11
-1.37948e-13
-5.08029e-13
-3.64691e-13
2.76372e-13
1.49184e-11
1.87223e-11
1.59204e-11
-1.77063e-11
5.03948e-12
6.31383e-13
-2.80685e-12
1.67762e-11
-1.03502e-13
-5.51712e-14
1.59121e-11
-2.02044e-15
8.10523e-13
1.38507e-13
3.20039e-13
-1.61431e-11
2.53126e-13
5.34595e-13
3.85272e-14
-1.74673e-11
5.23838e-14
-1.82557e-11
-1.62104e-11
1.73564e-11
-1.76623e-13
1.70451e-12
1.02587e-11
-1.53423e-11
3.57253e-15
8.86206e-13
2.1641e-11
1.64509e-11
-2.14057e-13
-2.82533e-14
-2.26493e-13
1.33241e-12
1.0064e-11
-1.5681e-11
5.9153e-13
1.80391e-11
2.12916e-11
1.58226e-11
1.47923e-13
-1.47988e-13
0
4.4393e-13
0
-7.1004e-12
2.95805e-13
0
1.6564e-11
-7.39494e-13
-2.21877e-11
1.47947e-13
0
1.87898e-11
5.55231e-13
-7.28928e-12
-6.69148e-13
-3.32655e-13
1.66334e-11
-3.35816e-13
-4.25467e-11
-4.45224e-14
1.76646e-13
1.33264e-13
1.95698e-13
2.21369e-11
2.35238e-13
9.36238e-13
-4.73679e-14
-6.82259e-15
-5.01571e-13
5.61772e-14
2.54634e-14
-1.84594e-11
-1.01444e-12
-3.14494e-13
5.82591e-13
6.27071e-13
1.84924e-11
-1.42534e-13
1.97798e-11
-2.27881e-11
-2.07995e-11
-1.20668e-11
2.44375e-13
-3.81269e-11
-3.18823e-13
-9.35203e-13
3.42501e-13
4.30849e-13
-4.55448e-14
-2.40249e-13
2.11344e-14
1.84651e-11
3.67536e-13
-2.08703e-11
7.04214e-16
-3.42932e-13
-1.82881e-11
-9.93853e-14
1.73996e-13
1.32867e-12
2.04618e-11
1.17342e-11
-1.17005e-13
-6.19813e-12
-1.93032e-11
-4.03408e-13
-6.60974e-13
-9.88684e-14
2.13981e-13
-4.15009e-13
1.09383e-13
-8.47644e-13
-1.84447e-13
2.06071e-11
2.13498e-13
-5.24107e-14
-1.85091e-13
5.03814e-14
-2.02514e-11
2.14643e-11
0
-1.81424e-13
1.14084e-13
2.2215e-11
1.94257e-11
1.86409e-13
1.34444e-14
6.72051e-14
-7.00297e-14
5.91572e-13
-1.88072e-13
-1.71645e-11
-1.4794e-13
1.47902e-13
1.47874e-13
1.4786e-13
-4.43571e-13
2.95733e-13
2.0261e-11
0
-2.95913e-13
-5.91721e-13
1.71583e-11
0
-2.07047e-12
0
0
1.47884e-13
-1.47893e-13
-1.47911e-13
0
-5.91666e-13
3.32786e-11
1.47891e-13
0
2.14432e-11
5.91526e-13
1.95199e-11
-1.3309e-12
1.47892e-13
2.04108e-11
0
7.3945e-13
-1.67109e-11
2.07045e-12
1.47898e-13
7.39469e-13
1.47879e-13
-1.92231e-11
1.183e-11
1.47886e-13
0
-1.62671e-11
0
0
-2.20411e-11
-4.43762e-13
-1.95219e-11
8.87206e-13
1.47861e-13
-2.05536e-11
0
-2.95763e-13
1.67123e-11
-3.84607e-12
-1.47952e-13
-4.43834e-13
1.77489e-12
3.62283e-11
-1.18284e-11
0
2.95759e-13
-7.39385e-13
-2.26274e-11
-1.4792e-12
-1.8345e-11
1.47937e-13
2.01144e-11
0
-1.47849e-13
1.47854e-13
1.47881e-13
-1.73011e-11
-1.7745e-11
1.03524e-12
0
-1.47898e-13
-1.47871e-12
-1.7594e-11
0
0
0
-1.47878e-12
2.29193e-11
1.47864e-12
1.96662e-11
-1.47861e-13
-5.91385e-13
0
2.38041e-11
1.86315e-11
-4.43717e-13
1.77466e-11
1.77446e-11
2.51361e-12
-1.47851e-13