/*--------------------------------*- C++ -*----------------------------------*\
  =========                 |
  \\      /  F ield         | OpenFOAM: The Open Source CFD Toolbox
   \\    /   O peration     | Website:  https://openfoam.org
    \\  /    A nd           | Version:  10
     \\/     M anipulation  |
\*---------------------------------------------------------------------------*/
FoamFile
{
    format      ascii;
    class       volScalarField;
    location    "0.9";
    object      gradTz;
}
// * * * * * * * * * * * * * * * * * * * * * * * * * * * * * * * * * * * * * //

dimensions      [0 -1 0 1 0 0 0];

internalField   nonuniform List<scalar> 
46825
(
1.49086e-13
0
-1.48932e-13
2.67689e-11
4.45697e-13
-1.88679e-11
1.48719e-12
2.71066e-11
2.98155e-13
2.22158e-11
5.96213e-13
-1.4893e-13
1.48581e-13
-2.75323e-11
1.96369e-11
1.47648e-13
-4.44079e-13
2.83798e-11
-2.97867e-13
-7.45312e-13
-2.30802e-11
0
-4.94845e-11
-2.9267e-11
-2.90893e-13
-5.81788e-13
-1.46336e-13
-1.90556e-11
-7.42861e-13
-5.95649e-13
-4.46072e-13
0
-9.36518e-12
3.39765e-11
6.98247e-12
7.26746e-12
-5.7587e-13
-4.11188e-11
0
-5.94772e-13
2.24311e-11
2.95287e-13
-1.80365e-11
-2.8502e-13
8.15987e-12
-8.01915e-12
-1.42508e-13
-3.86907e-11
1.62405e-12
-1.18838e-12
-2.21366e-11
1.4767e-13
-4.2047e-11
0
7.45745e-12
-3.32065e-11
2.1238e-11
0
1.47664e-13
2.97125e-13
-1.04116e-12
5.92314e-13
-1.33254e-11
-2.89556e-11
1.0549e-11
-1.85318e-12
1.0804e-11
7.61434e-12
4.44217e-13
-8.92385e-13
-4.46889e-13
0
-2.95663e-13
-1.85976e-11
-1.57152e-11
-2.91023e-13
-2.92875e-13
3.10448e-11
-3.59727e-11
2.97917e-13
-6.85861e-12
-1.48984e-13
2.05134e-11
-1.48082e-13
-1.47687e-12
2.20054e-11
4.44253e-13
-2.39328e-11
0
5.96405e-13
0
2.98193e-13
1.48959e-13
7.43695e-13
-1.04007e-12
1.48584e-13
5.94981e-13
1.19174e-12
0
-2.38601e-11
3.08838e-11
-1.49346e-13
2.83738e-11
2.79071e-11
-2.98375e-13
-1.89467e-11
3.55182e-11
5.82422e-12
-1.49359e-13
2.98432e-13
-2.97139e-11
1.12218e-13
2.3967e-14
2.29282e-12
7.91449e-12
1.69952e-12
1.44593e-14
3.53086e-11
-3.74075e-13
-7.46658e-13
-1.83625e-11
8.05106e-14
4.76754e-12
-2.96567e-11
2.95805e-13
-4.19868e-11
2.95934e-13
1.51509e-11
-4.84971e-13
-2.98595e-13
2.8496e-11
8.87083e-12
0
6.85103e-11
2.90624e-13
1.16147e-12
-1.92192e-11
-3.4175e-11
-6.86015e-12
2.84965e-11
2.31195e-11
1.46355e-11
5.67891e-11
-8.71846e-13
2.87475e-13
-2.87087e-13
8.65041e-13
-5.80571e-11
-4.45758e-13
-3.66924e-11
-2.23759e-11
1.68634e-11
-1.80368e-11
4.61699e-11
-1.52158e-11
-3.32542e-11
0
0
7.48602e-13
-1.49166e-13
-8.95413e-13
-4.67582e-11
-1.27291e-11
-2.82587e-11
5.76776e-13
-2.01606e-12
-1.30142e-11
4.17027e-11
8.36258e-12
-4.47681e-13
-4.4803e-13
3.78054e-12
-1.5456e-11
-1.70999e-11
8.79877e-13
-3.89786e-11
-4.61091e-11
3.19626e-11
1.6396e-11
2.04593e-11
1.4936e-13
-1.12246e-13
8.92666e-12
8.05087e-12
5.20681e-13
-8.03927e-12
-8.68333e-12
-1.33774e-12
8.60583e-12
8.96163e-13
0
-4.48054e-13
1.49332e-13
8.9537e-13
1.49176e-13
2.52113e-11
-1.49238e-13
4.48038e-13
0
1.49229e-13
2.98326e-13
-2.51294e-11
8.13044e-13
-7.8731e-14
-2.63456e-13
2.08186e-11
1.90361e-11
-2.09641e-11
1.08948e-12
-2.17819e-11
-4.25959e-11
0
0
3.43934e-11
7.79358e-12
-4.49882e-12
-6.01761e-11
-5.8541e-11
0
-2.82036e-13
2.35694e-13
-2.98736e-13
-1.0474e-10
-6.05431e-12
3.19637e-11
6.95239e-11
1.91222e-11
4.47771e-11
-6.00634e-13
-2.56053e-11
4.0206e-12
-1.34552e-11
5.20653e-11
5.37646e-06
3.05787e-06
3.11849e-06
2.77069e-06
5.68002e-07
9.03535e-13
1.35877e-13
-9.77858e-14
-2.997e-13
-3.31765e-11
3.05514e-06
-1.28832e-05
-1.32049e-05
-1.14285e-05
7.24253e-07
1.96643e-11
-2.21967e-11
-2.25275e-11
4.37803e-11
4.11531e-11
3.11996e-06
-1.31972e-05
-1.35457e-05
-1.1659e-05
7.31639e-07
4.90606e-11
2.28892e-11
-6.3434e-14
-9.87815e-12
1.91239e-11
3.06924e-06
-1.13791e-05
-1.16543e-05
-1.00603e-05
6.94657e-07
-5.43445e-12
8.53963e-14
2.5942e-13
8.9595e-13
4.14783e-11
2.08877e-07
7.20924e-07
7.31085e-07
6.9471e-07
-1.63355e-09
3.99883e-11
-1.60333e-12
6.67752e-12
2.98392e-13
5.13609e-11
2.04846e-11
-6.74569e-11
-1.81693e-11
4.4382e-11
4.57034e-11
2.99101e-13
-3.96903e-13
-4.47513e-13
-2.39599e-11
-1.16188e-13
-9.79042e-14
7.14759e-13
2.14346e-13
-3.94994e-13
1.95218e-11
1.9536e-13
2.43175e-11
-3.09521e-11
6.54572e-14
-2.92649e-12
3.04379e-11
3.21954e-11
7.2283e-13
-8.7658e-12
1.46667e-13
2.44907e-11
1.48854e-13
2.94263e-11
2.97015e-13
-4.90234e-13
-2.29832e-10
-3.55409e-10
-3.05398e-10
-2.18558e-10
-4.71018e-12
4.54151e-11
-2.13993e-13
-1.17896e-13
-2.33693e-12
1.6516e-08
-2.0345e-05
-2.02881e-05
-1.9865e-05
-2.02584e-05
-2.20827e-05
-5.01925e-10
-2.2501e-11
-2.80755e-11
-2.46292e-10
-2.27929e-05
-224.971
-293.063
-293.693
-292.171
-1.1989
5.13837e-08
-5.13339e-11
4.64033e-13
-3.25188e-10
-2.02095e-05
-293.058
-404.802
-406.288
-402.532
-2.33582
-2.65071e-08
3.57894e-11
-2.25452e-11
-3.31106e-10
-2.0057e-05
-293.67
-406.272
-407.847
-403.922
-2.3457
-1.26389e-08
3.18414e-11
6.33999e-13
-3.08801e-10
-2.02532e-05
-291.162
-402.388
-403.911
-400.013
-2.32569
-5.42508e-08
-2.15992e-13
-3.92538e-13
-7.56211e-11
-2.2037e-05
-0.38125
-2.33011
-2.3454
-2.32561
-0.347349
1.37845e-07
-2.12357e-11
-2.08205e-11
2.96711e-13
-5.40045e-10
7.40936e-08
-2.17874e-08
-1.34883e-08
-5.04873e-08
1.38839e-07
3.53937e-11
-2.55279e-11
-1.33927e-12
5.57218e-13
-2.27011e-11
3.62063e-13
7.42745e-12
-2.45072e-11
8.34747e-13
3.61605e-12
-1.75742e-13
1.3395e-11
0
3.67939e-12
2.50319e-11
6.886e-13
9.49664e-13
-1.98048e-11
-1.79033e-11
-2.72671e-15
-1.14058e-12
2.97342e-13
6.95767e-11
2.96347e-13
5.07354e-11
5.07448e-09
1.08499e-08
1.07949e-08
1.04275e-08
-3.5471e-10
-4.56327e-11
5.91251e-14
2.13745e-13
5.91857e-12
4.33951e-09
-0.00332317
0.0246583
0.0249599
0.0242933
-5.47509e-05
2.1333e-09
2.62292e-11
-3.36178e-12
4.10621e-09
0.0120922
9.317e-06
-2.47002e-11
1.43713e-12
1.08268e-08
0.0246706
2.58078e-05
5.3952e-11
2.32983e-11
1.0716e-08
0.0248741
2.63803e-05
3.44418e-12
-2.15946e-11
1.04577e-08
0.0242905
2.44588e-05
-2.00701e-11
-2.76235e-14
-1.73789e-10
-4.65921e-05
-5.84509e-07
-1.28552e-11
-3.88313e-11
-8.88475e-13
2.31861e-09
1.63757e-05
2.60627e-05
2.64572e-05
2.44262e-05
-5.82241e-07
-3.3074e-11
2.6527e-13
4.4586e-13
3.95291e-11
-2.75498e-11
3.46369e-13
1.74248e-12
1.9325e-12
8.94431e-13
-4.85738e-11
-2.10484e-11
2.17029e-11
-2.08131e-11
-2.15687e-11
8.13248e-12
-3.0628e-11
-3.09133e-11
8.9504e-14
-5.41738e-11
-2.64275e-13
-4.54893e-11
0
3.23537e-11
-2.97272e-13
-4.55192e-11
8.52744e-10
2.57348e-09
2.51659e-09
2.37755e-09
-9.20082e-11
4.8227e-11
-6.03794e-14
-4.39103e-12
1.06474e-12
-6.85705e-09
0.000592701
0.000802092
0.000803911
0.000800573
-5.85716e-06
1.97257e-10
2.08385e-11
2.76836e-11
7.77151e-10
0.000365313
3.81312e-06
2.34096e-11
4.0661e-13
2.43662e-09
0.000802974
1.93899e-06
1.53485e-13
2.34065e-11
2.49436e-09
0.000803884
1.7932e-06
-3.09542e-11
-9.26395e-13
2.31704e-09
0.000800766
1.50139e-06
6.48783e-13
-4.45563e-13
1.70381e-11
-1.73086e-06
-3.76222e-08
2.20716e-12
2.09219e-11
-2.97733e-13
2.25625e-10
9.6138e-07
1.70043e-06
1.7936e-06
1.50117e-06
-4.65047e-08
-4.35594e-11
2.47056e-11
8.92018e-13
-4.51447e-13
5.18508e-11
1.19595e-13
-3.68851e-11
-4.64273e-13
-2.60572e-14
3.0515e-12
-2.13724e-13
-1.3234e-11
1.48749e-13
5.58156e-11
-2.61595e-11
-1.48323e-13
4.87399e-13
-1.33682e-13
-6.32112e-13
-2.58325e-11
2.48968e-11
-1.48796e-13
-2.72942e-11
4.19871e-11
3.16216e-12
2.56094e-10
6.58278e-10
6.64116e-10
6.81371e-10
-4.13051e-12
-4.71398e-11
3.70087e-13
-2.73211e-11
2.60641e-12
-1.27131e-08
0.000145136
0.000271511
0.000181373
0.000270853
-4.00708e-06
1.10469e-10
4.19904e-13
1.07442e-12
1.85508e-10
0.000143124
2.40629e-07
2.60216e-11
-2.15465e-11
6.29812e-10
0.000271801
3.12177e-07
-3.06659e-11
1.743e-13
6.18947e-10
0.000271579
2.26203e-07
-2.51682e-11
2.34271e-11
6.54141e-10
0.000270695
-8.42639e-08
2.03607e-11
1.87732e-13
-4.24606e-11
-8.45787e-07
1.26493e-08
1.32046e-11
3.87966e-11
5.96655e-13
-2.16875e-12
1.41678e-07
1.93769e-07
2.50919e-07
2.04035e-07
-8.16155e-09
4.42667e-11
-4.17234e-13
1.48761e-13
-3.97464e-11
2.35939e-11
1.20662e-13
-3.48976e-11
-3.84616e-13
-5.10129e-13
2.86626e-11
2.17053e-11
-2.24671e-11
4.97072e-11
2.21329e-11
-3.36742e-11
2.70893e-11
2.40117e-11
2.28741e-13
5.86608e-11
6.51421e-13
2.0849e-11
-5.95465e-13
-3.15728e-11
-4.79766e-11
1.66499e-12
4.01226e-11
1.69503e-10
1.19552e-10
1.29526e-10
-2.57346e-11
-1.49282e-12
-7.95514e-13
-2.34886e-11
3.31367e-13
4.62462e-09
7.24814e-05
0.000272496
9.20324e-05
0.000181845
-5.513e-06
4.9545e-11
4.21997e-13
-5.14228e-12
6.20717e-11
2.15996e-06
-2.70198e-08
-3.51236e-13
-2.54973e-13
2.03147e-10
0.000272298
-8.00321e-08
-1.5662e-13
2.12496e-11
2.39652e-10
9.20372e-05
-8.89623e-08
-2.26509e-11
4.50958e-13
1.30969e-10
0.000271616
-1.9245e-06
-3.67591e-11
1.14446e-13
-4.11972e-11
-3.01358e-07
-1.6719e-08
-1.03529e-12
5.16109e-14
-5.97294e-13
1.62999e-11
-7.95136e-08
3.18496e-08
-6.42744e-08
-2.58521e-08
-2.86537e-09
-3.01287e-13
1.75201e-13
2.97672e-13
-1.23391e-13
-8.15877e-12
-1.97379e-13
3.05904e-11
3.78823e-13
-4.61263e-13
-6.80411e-12
2.28383e-11
-1.48862e-13
-4.46642e-13
-3.44186e-11
4.20379e-14
-8.46604e-14
2.19975e-11
-2.99327e-13
4.48109e-13
2.61056e-11
-2.4924e-11
1.48922e-13
-4.38883e-13
5.66327e-12
-1.71238e-12
-2.88764e-10
-1.10196e-09
-1.05869e-09
-9.8741e-10
3.09077e-11
2.09035e-12
2.5155e-13
2.73486e-11
-4.31021e-11
2.78481e-09
-0.000146396
-8.31052e-05
-0.000173364
6.51171e-06
-5.47544e-06
-1.33907e-10
-8.51709e-13
2.0428e-11
-2.61749e-10
-0.000148702
-8.92305e-07
-2.4106e-13
2.18225e-11
-1.09595e-09
-8.31138e-05
-1.66007e-06
-8.63998e-13
-5.87088e-13
-1.17221e-09
-8.34433e-05
-1.69898e-06
8.04747e-13
-2.62687e-11
-9.78515e-10
-8.26259e-05
-7.50253e-08
-8.3944e-14
1.40267e-13
-3.3359e-12
-6.33831e-07
-2.56365e-07
-7.57737e-14
-5.07043e-14
-4.15149e-11
-1.69121e-10
-8.40558e-07
-1.7023e-06
-1.69492e-06
-1.45919e-06
3.0164e-08
-6.09097e-13
-6.55772e-13
-1.48893e-13
2.36732e-11
3.33959e-12
-3.05062e-11
3.30448e-11
1.22937e-12
6.5304e-13
-3.53479e-11
-2.60689e-13
1.48915e-13
-6.70148e-12
-3.22987e-11
-8.04599e-14
-2.68472e-11
-2.39351e-11
2.79259e-14
2.75582e-12
-5.42425e-13
-2.77448e-13
5.95841e-13
2.81278e-11
3.27886e-12
-1.18084e-12
-6.4161e-10
-1.39849e-09
-1.22995e-09
-1.61598e-09
9.00414e-11
-1.4929e-12
1.08581e-12
2.36796e-11
4.25851e-11
2.76157e-09
-0.00791059
-0.0185992
-0.0188951
-0.0184822
1.02072e-05
-2.28416e-10
3.93525e-13
-2.15261e-11
-6.58467e-10
-0.00805261
-1.19979e-05
2.16835e-11
-7.86691e-14
-1.36166e-09
-0.0185991
-2.01912e-05
-1.67253e-13
-2.1885e-11
-1.22452e-09
-0.0188946
-2.0493e-05
2.19779e-11
-2.24974e-11
-1.59939e-09
-0.0183025
-1.85421e-05
3.65171e-11
3.85797e-13
5.28269e-11
1.88179e-05
2.33471e-07
2.30497e-13
-2.8602e-14
4.21108e-11
-2.51061e-10
-1.20092e-05
-2.02313e-05
-2.04981e-05
-1.87621e-05
2.41747e-07
-6.02323e-13
9.20532e-13
0
2.60776e-13
-2.15213e-11
3.70076e-13
3.65951e-13
-1.00859e-11
-1.45272e-13
-7.33959e-13
-2.32184e-11
7.44784e-13
-2.97885e-13
6.53084e-13
-2.85292e-14
-4.48502e-13
1.17857e-11
2.288e-11
1.3157e-13
2.43408e-11
-2.18972e-11
-1.63864e-12
-9.35508e-13
-5.33578e-11
-1.66579e-13
2.96454e-11
-7.00244e-11
1.35463e-11
-7.07909e-11
-3.80535e-13
1.79157e-12
-5.33105e-13
-2.37444e-13
-5.73628e-11
-5.13088e-09
9.42312e-05
8.60936e-05
8.64085e-05
8.64629e-05
8.7245e-05
7.72955e-10
4.5851e-13
-2.13511e-11
-7.60126e-11
9.35671e-05
-7.92953e-08
-2.51417e-11
2.89233e-11
-4.7071e-11
8.6124e-05
-9.57425e-08
1.84973e-13
3.66226e-13
-2.41463e-11
8.65702e-05
-9.57143e-08
-6.7805e-13
2.51539e-11
-1.79163e-11
8.67625e-05
-9.49767e-08
-2.54543e-11
3.22603e-11
-4.1147e-13
8.75779e-05
1.06268e-08
-2.27557e-11
2.13937e-13
-1.19412e-12
7.32857e-10
-7.93193e-08
-9.58139e-08
-9.57915e-08
-9.5195e-08
1.06407e-08
4.21561e-11
1.65746e-13
2.97907e-13
9.86191e-13
2.0015e-13
3.01707e-11
7.94407e-13
-1.40094e-12
-1.07001e-12
3.57382e-11
-2.85397e-11
1.48964e-13
-2.20437e-11
-1.8502e-11
1.911e-13
-8.05891e-14
-2.15154e-11
1.79886e-11
-3.28439e-11
3.30689e-13
-1.24159e-13
0
-2.84288e-11
5.00872e-11
1.44116e-12
-4.74251e-11
4.65808e-11
-4.42727e-11
4.2715e-11
5.64345e-13
-5.64428e-11
-6.32744e-14
-3.96239e-14
5.76786e-11
0
-5.79988e-13
1.17621e-12
-8.24601e-12
8.86692e-11
-2.63979e-13
8.51282e-12
-6.35686e-14
-6.24952e-13
4.50814e-11
-9.80296e-11
1.56426e-12
-2.1393e-11
-2.49445e-14
2.92952e-13
-2.3523e-11
-4.11388e-13
-5.43715e-13
-1.38156e-13
5.86377e-13
-9.01166e-11
-1.1492e-13
1.45675e-13
2.23254e-11
4.79804e-11
2.34885e-12
1.4158e-12
2.25583e-11
-1.43737e-13
4.80175e-14
7.50758e-13
-9.05959e-12
-3.18419e-11
2.23033e-11
5.97279e-13
-1.83064e-11
9.95121e-13
6.71095e-11
6.12589e-11
5.59239e-11
2.63408e-11
-4.15778e-11
-1.43974e-12
2.26397e-11
8.71974e-14
-2.46403e-11
2.55742e-13
2.20113e-11
3.05849e-11
4.97653e-14
1.777e-12
4.17246e-13
-1.04268e-12
-5.95738e-13
-2.24168e-13
-9.639e-15
-4.48511e-13
-4.73866e-11
-2.28901e-11
8.03426e-13
-1.96156e-12
5.08743e-11
1.19154e-12
7.87679e-13
4.71107e-11
-2.45384e-13
-4.4196e-11
2.9284e-13
8.79252e-13
-2.92454e-13
-4.56218e-13
5.46592e-11
2.9426e-11
2.26718e-13
1.65731e-13
-1.68365e-10
1.23988e-12
-2.41154e-12
1.18163e-12
-1.76641e-12
1.41473e-12
1.65027e-11
9.19522e-14
-4.41149e-14
-1.17076e-12
2.29797e-10
-4.66413e-11
4.53607e-11
-5.34192e-11
2.92826e-13
-8.34579e-11
-2.89047e-13
2.2681e-13
-5.86474e-14
-2.93069e-13
-1.77244e-12
5.70827e-11
-2.20182e-14
1.97905e-13
-4.79613e-11
-1.1776e-12
1.32171e-12
4.86561e-11
-3.29455e-11
-3.16143e-13
-2.18302e-12
4.48394e-11
2.25188e-11
2.53254e-11
2.09071e-12
-3.47057e-12
-1.33624e-12
3.0163e-13
-2.19063e-13
-7.78554e-11
-2.62757e-11
-3.01411e-13
-2.34658e-13
-1.48933e-13
-9.08101e-13
2.50086e-13
3.83381e-13
-6.12536e-13
-4.56863e-13
-2.7628e-11
2.57717e-11
3.12663e-11
5.95761e-13
-4.02105e-12
5.02422e-11
3.86963e-13
6.27488e-13
5.13636e-11
-1.79694e-11
1.55967e-11
6.21077e-13
-1.11665e-13
2.56163e-11
2.71297e-13
-4.71099e-11
-2.9957e-13
4.97631e-11
-4.18837e-11
5.86273e-13
-2.92488e-13
7.9387e-13
1.19482e-12
-2.15174e-13
-3.19963e-11
-9.52562e-13
6.12329e-13
-4.45416e-13
-1.17488e-13
0
-1.64897e-11
1.12524e-13
-5.44987e-12
-2.5442e-13
3.3033e-12
5.85425e-13
2.15574e-12
7.17723e-11
7.81434e-14
-6.06759e-14
2.92872e-13
-1.33571e-12
8.58627e-14
-3.17483e-14
3.30516e-11
-5.86243e-13
5.9099e-13
-5.75645e-11
-8.35355e-14
3.14381e-13
0
1.21906e-10
-1.48204e-12
-2.24121e-11
2.77644e-13
-6.54385e-13
2.94472e-13
-4.50886e-11
5.27772e-11
-4.59041e-11
-2.38955e-12
-1.30939e-12
-3.14251e-13
2.90861e-13
5.03878e-13
2.13107e-11
4.01851e-11
0
-2.03934e-11
-2.33818e-11
-8.45695e-14
2.48643e-11
-2.67006e-11
-2.21975e-11
1.23619e-11
1.52741e-13
-1.25932e-12
9.01869e-14
0
2.97866e-13
-2.74444e-13
-6.31573e-14
4.10604e-13
1.26649e-11
-1.08281e-13
-2.4612e-12
-2.31189e-11
-2.86212e-11
2.1596e-11
2.22957e-11
5.96263e-13
5.31844e-13
-5.85387e-13
4.21695e-11
-2.93085e-13
8.77348e-13
-4.21958e-14
-1.31412e-11
-5.0123e-11
-2.27626e-11
5.48186e-11
1.83689e-12
-3.96062e-13
-8.86002e-11
1.6547e-11
-5.88888e-13
9.89171e-11
-4.12198e-11
1.35347e-13
-2.06978e-13
-5.06349e-11
2.38139e-12
7.59026e-12
-2.03492e-11
2.35608e-11
-5.44678e-11
-1.05161e-10
-8.46572e-13
2.83736e-13
1.03759e-13
2.93075e-13
-5.90961e-13
1.812e-13
-3.91453e-13
2.27814e-11
5.84888e-13
-1.29555e-10
-2.89918e-13
-2.31974e-11
2.04269e-13
5.09815e-11
9.8214e-11
-6.03933e-11
-1.65506e-13
-2.54612e-12
1.34394e-11
-5.91229e-11
-6.02512e-11
1.69901e-13
-6.94402e-13
6.27333e-11
-4.00605e-11
0
-5.55777e-13
7.44655e-13
3.90588e-11
9.12924e-13
-1.55478e-13
-3.11653e-11
-1.14621e-13
2.84608e-11
-2.49085e-11
3.06211e-11
-5.95741e-13
3.87245e-12
6.55734e-13
5.80618e-13
-2.64475e-11
-2.99094e-11
3.25566e-13
-1.59764e-11
-2.69955e-13
4.33858e-13
-2.50236e-11
3.18902e-13
-5.96164e-13
1.49248e-13
4.03856e-11
1.46417e-12
5.39252e-11
2.92441e-13
-9.66124e-14
1.22416e-11
8.80931e-15
3.17463e-11
-5.42215e-11
2.6321e-11
-8.56544e-11
5.54019e-13
0
5.88424e-13
3.57777e-12
4.05458e-11
-2.53475e-13
-2.91689e-12
5.09199e-11
1.21049e-10
-3.208e-11
-1.14769e-13
9.53133e-14
5.27079e-11
-1.33299e-13
-8.48749e-13
3.08283e-14
-3.32127e-11
8.79208e-13
1.28114e-10
1.12085e-12
-1.96288e-13
2.69056e-13
-5.84861e-13
-2.94186e-12
-7.57642e-13
-3.63656e-14
-4.35344e-13
-5.12308e-11
-2.31359e-12
1.27885e-10
-2.05592e-11
2.36979e-11
-5.07571e-12
6.00661e-11
6.03322e-11
-1.13928e-12
3.76185e-13
-1.96689e-11
5.88919e-11
6.02478e-13
-3.85513e-13
2.97895e-13
-1.78457e-13
-2.14196e-13
2.65309e-11
6.87255e-14
-3.30665e-11
3.61102e-11
2.53739e-11
8.49457e-14
-7.44742e-13
-1.48961e-13
-1.32544e-13
-6.39646e-14
-1.21193e-12
-7.14842e-14
-1.38e-13
2.26106e-12
8.3909e-15
-5.41888e-13
-2.23477e-11
-1.63419e-12
2.98052e-13
4.79869e-11
-3.98812e-11
-4.84871e-11
-5.35288e-11
1.17351e-12
-8.82634e-13
5.52188e-11
3.44349e-11
1.00003e-11
-5.8035e-13
2.43961e-12
5.80618e-13
6.49929e-12
1.15963e-10
5.01602e-11
-3.14139e-12
-4.03558e-11
2.70217e-13
1.27397e-14
0
1.06843e-10
-1.88558e-12
-2.13395e-11
8.0904e-14
1.46926e-12
5.90829e-13
-4.6555e-11
2.73346e-13
-3.07888e-13
-6.76452e-12
-1.77497e-12
-4.6801e-11
5.17423e-13
-2.25038e-11
-8.80182e-13
1.00914e-10
-3.4836e-11
-2.29757e-11
-3.29123e-13
2.94237e-13
-1.44542e-12
-6.80705e-11
-2.34507e-13
-2.26635e-11
-8.0591e-12
-1.83928e-12
2.17363e-13
-6.95511e-13
-2.99918e-13
-4.31908e-11
-6.04433e-11
-6.01805e-13
2.92114e-13
-2.97959e-13
-7.75327e-11
-1.01518e-12
1.22425e-13
3.1813e-11
4.10818e-13
7.24539e-13
-9.81478e-14
-7.09074e-11
1.48985e-13
1.48966e-13
1.93659e-13
-3.99643e-13
2.68089e-11
-1.57364e-13
5.36266e-13
1.62099e-13
2.76215e-14
1.12492e-13
2.98006e-13
3.23388e-15
5.96355e-13
-4.77085e-11
2.93495e-13
4.73205e-11
2.94175e-13
-5.19442e-11
-5.86883e-11
-5.40711e-11
-2.98234e-11
3.37211e-14
1.23523e-11
6.13733e-13
4.43778e-12
-3.53771e-13
1.10469e-12
-9.85811e-13
-8.33941e-11
1.56816e-11
-2.29624e-11
-2.8235e-13
-2.93414e-13
1.24806e-12
-1.91422e-13
-2.74204e-11
-9.8167e-13
0
-8.40313e-11
9.03292e-11
-7.79072e-16
-3.31851e-13
7.35384e-12
9.00526e-11
4.63542e-11
-2.22605e-11
-6.30513e-14
1.17385e-12
1.91582e-12
3.54275e-11
-4.8434e-12
-1.61798e-13
5.71326e-11
-5.60524e-15
4.23254e-14
5.70538e-13
-2.57535e-11
-5.97488e-13
2.54121e-11
-6.02901e-13
1.05836e-12
-5.76818e-14
2.52347e-11
3.02263e-12
3.01422e-13
4.0248e-11
2.71181e-11
2.2804e-11
-2.2296e-14
2.96399e-11
1.6062e-13
-2.07123e-11
-3.6641e-11
-4.81872e-11
-1.05991e-13
2.80121e-11
5.95812e-13
-1.13122e-13
2.48533e-11
8.32812e-13
2.97805e-13
2.18015e-13
-4.65479e-13
-4.8806e-14
-2.9245e-13
1.48993e-13
-2.1535e-11
5.09875e-11
-5.41544e-11
6.35662e-11
0
0
1.0325e-10
5.97987e-11
-8.06535e-12
-1.35626e-11
1.58758e-11
-1.2889e-11
3.06805e-12
1.1026e-10
-5.88765e-13
5.89762e-13
-5.87928e-13
-8.33952e-11
1.13738e-10
-1.38985e-12
1.3452e-13
5.85656e-13
5.27884e-12
-2.64759e-13
5.02798e-11
2.1643e-13
-4.30428e-11
5.88753e-13
-4.31658e-11
4.44951e-13
2.82624e-13
-5.86148e-13
2.35902e-12
-5.83509e-13
-4.85225e-13
2.03474e-13
-2.9247e-13
6.46719e-12
-5.81526e-13
1.61468e-11
2.33349e-13
-5.73226e-11
5.92197e-11
6.30196e-11
9.29284e-14
1.49038e-13
-8.96187e-13
2.25336e-13
-4.41944e-11
6.88e-11
3.30311e-14
-2.51475e-11
-1.23615e-13
-1.20555e-12
5.81933e-13
-2.97991e-13
3.85898e-11
2.17315e-11
-3.09845e-11
1.03268e-13
-3.99856e-12
-4.16522e-13
-3.39405e-11
6.88143e-12
1.49e-13
0
-7.50305e-13
5.11154e-15
-2.74545e-11
1.90667e-11
-2.56955e-11
-4.96307e-11
-4.5026e-13
-5.08594e-13
2.35426e-11
-2.94147e-13
-5.15832e-11
5.48504e-11
-6.32762e-11
0
0
-5.20599e-11
-2.9424e-13
7.46841e-12
5.58381e-11
-2.77712e-13
1.11253e-12
3.68293e-12
1.15526e-12
-1.9462e-11
-9.04084e-11
-9.53929e-11
4.62951e-12
9.45879e-11
1.20244e-13
3.97765e-12
2.92839e-13
9.0996e-12
-8.57169e-13
2.69253e-11
-5.54776e-14
4.27469e-11
-1.22876e-12
4.85303e-11
-1.07428e-13
9.3312e-14
-4.33744e-11
0
-5.6117e-11
2.25443e-11
3.52381e-13
1.1698e-12
2.35537e-12
-1.41611e-13
5.17072e-12
-2.8067e-13
2.8474e-13
3.26313e-13
-1.27159e-10
-2.33164e-11
-1.36412e-11
2.98727e-13
1.07344e-12
4.36885e-11
-6.81678e-11
-3.7986e-15
-4.31309e-11
-1.36069e-12
1.50722e-12
-1.9191e-11
-2.7268e-11
-2.34855e-11
2.94442e-13
-2.93449e-11
-6.18008e-13
2.08067e-11
-1.70531e-13
2.24643e-11
6.48001e-13
-2.75667e-11
0
6.80635e-13
-2.50028e-11
-2.71242e-11
-2.10076e-11
4.25199e-14
1.03196e-12
-2.17919e-11
-4.80664e-11
-2.63832e-11
5.99318e-13
-4.47305e-11
-3.34631e-13
0
1.46432e-12
5.86233e-13
-2.92484e-13
-8.82704e-13
-1.19502e-12
-5.89976e-13
-3.30163e-11
-4.4303e-13
-6.13853e-13
-3.50554e-11
8.49357e-11
-5.31836e-12
-2.94441e-12
1.86768e-12
-9.35064e-11
1.47192e-12
2.10391e-11
-2.92861e-13
7.05895e-13
1.81742e-12
-5.03679e-11
2.82297e-11
8.78473e-13
-3.20933e-11
-4.83247e-11
-3.55516e-13
2.13959e-11
9.64304e-11
-9.9869e-11
5.62988e-11
6.81686e-13
-1.85256e-13
-2.04731e-12
5.88888e-13
6.44835e-11
7.01086e-12
-2.15221e-11
-6.63566e-13
-9.06968e-13
6.46697e-11
2.43386e-13
3.39481e-13
7.94699e-11
4.63639e-11
9.29746e-14
-2.68291e-14
-4.58051e-14
4.29775e-11
-1.80732e-13
6.14958e-11
-1.19948e-13
-2.62339e-11
2.52106e-11
-2.14245e-11
6.12226e-11
9.60445e-15
-2.03172e-11
2.06797e-11
3.4018e-11
2.33121e-11
-1.93783e-12
5.96492e-13
8.83419e-13
7.68662e-13
2.67407e-11
-1.89379e-11
2.51405e-11
4.93669e-11
2.27397e-11
2.21528e-11
-2.38658e-11
9.32792e-13
4.47437e-11
4.61942e-11
6.44377e-11
-2.04983e-12
2.93091e-13
-4.73791e-11
-2.94245e-13
5.97569e-13
-4.76682e-11
-3.84558e-11
4.75693e-11
1.84059e-12
-1.33333e-12
5.89597e-13
0
8.77185e-11
-1.30048e-12
-6.50512e-13
2.28973e-11
-3.8892e-12
4.74401e-11
-1.34817e-10
3.92842e-14
4.21179e-14
-2.03072e-11
4.56774e-11
9.55345e-11
-6.43229e-13
2.05407e-13
-3.36052e-13
-6.74058e-12
-3.54406e-12
-1.67372e-13
-2.023e-13
-2.5322e-11
1.16988e-12
0
-6.46459e-11
2.80772e-13
-3.26259e-11
1.30135e-12
-8.92466e-11
-6.61126e-11
2.27194e-11
1.80037e-11
-7.88798e-11
-9.75017e-11
-2.46565e-11
2.69531e-13
4.42439e-11
4.60465e-11
-5.10839e-13
-6.23876e-11
4.32652e-13
2.98322e-13
3.0387e-13
-9.36932e-15
4.91173e-13
6.62367e-13
5.0797e-13
4.16477e-13
-2.68137e-11
-2.6296e-11
1.49172e-13
1.49254e-13
-5.75743e-13
1.45882e-12
2.74544e-11
2.08647e-11
-2.18987e-13
-5.29842e-13
2.19743e-11
4.866e-11
2.59744e-11
-2.333e-11
-5.49333e-11
-4.5929e-11
-7.0141e-11
0
-1.46919e-12
4.75046e-11
-4.24251e-11
-4.45421e-11
2.6323e-13
3.05301e-11
-4.73339e-11
-6.12068e-13
7.67324e-13
4.11238e-11
5.88417e-13
8.62406e-11
1.12053e-10
-6.02317e-13
3.13437e-13
-2.12653e-11
-4.69471e-11
9.49617e-11
-5.97664e-11
2.15137e-11
-2.76787e-11
-4.52524e-11
-8.74804e-11
5.11271e-11
2.05823e-14
-2.13578e-11
-4.8231e-11
1.17596e-12
-1.17633e-12
-1.26362e-13
3.72099e-13
4.2253e-11
-5.27656e-12
-5.00416e-14
-1.9899e-13
-7.40219e-12
-8.42432e-13
-2.1321e-14
6.62116e-11
-1.88169e-15
4.45801e-14
0
5.14527e-11
-3.73411e-11
6.18633e-13
-4.5006e-11
-4.6314e-11
1.71116e-12
-3.01277e-13
2.13984e-11
2.20932e-11
-6.31743e-11
2.21684e-13
-3.01358e-11
-4.31079e-13
2.38624e-11
-2.10244e-11
7.56203e-12
6.8736e-12
2.09024e-12
-2.20834e-11
-7.82371e-13
-1.6745e-13
8.34141e-13
6.88368e-14
7.02807e-14
8.54066e-15
2.76511e-11
-2.16103e-11
5.9689e-13
-1.0689e-12
-4.47998e-12
3.71335e-13
6.53177e-12
-2.97701e-13
1.78729e-12
-2.67584e-12
4.18725e-11
4.39652e-11
2.20373e-11
3.83398e-11
-9.9203e-12
3.05894e-12
1.83895e-10
1.01565e-10
-8.32879e-11
9.07157e-11
3.25347e-12
7.17576e-13
-3.9678e-13
2.06534e-11
-3.83142e-13
-2.6935e-12
5.91201e-11
6.4928e-13
4.25883e-11
1.82321e-13
-1.74976e-11
-4.96113e-11
3.35216e-13
-2.55186e-13
5.41548e-13
1.06405e-10
-3.0099e-13
4.44296e-13
2.50779e-11
-4.1738e-11
3.79063e-12
-1.1997e-12
1.54765e-13
3.27238e-11
6.62692e-13
-1.03367e-10
7.42433e-14
-3.32809e-13
5.8952e-11
0
1.28185e-12
6.3224e-11
-1.50347e-12
1.80602e-12
1.1997e-12
-1.02098e-10
1.8092e-12
-2.89156e-13
0
-1.94853e-13
-1.84911e-13
-3.25079e-13
2.40499e-11
2.97326e-13
2.43968e-11
2.68232e-11
2.59256e-11
-7.46291e-13
-8.93264e-13
8.14267e-15
-1.38286e-12
1.70132e-13
-1.79588e-13
-3.4647e-13
2.7739e-11
2.16999e-11
2.33607e-11
4.46635e-13
2.36159e-11
5.80358e-11
0
-6.73994e-13
-6.99623e-14
-2.96748e-13
3.26153e-12
-5.92869e-13
-2.97476e-13
-7.24077e-12
3.73327e-13
9.92123e-12
3.48397e-11
-2.31653e-11
5.31999e-12
1.40207e-11
4.2709e-11
-5.01448e-11
-8.57916e-13
-2.11045e-13
5.95161e-14
-4.34997e-11
5.89404e-13
1.53147e-11
-1.00768e-12
-4.07485e-11
-4.18236e-11
-1.71414e-12
4.85035e-11
-9.27815e-14
-6.24285e-13
1.54905e-13
-5.91464e-13
-1.73566e-11
-1.8411e-11
2.02046e-11
-1.82076e-11
-3.48544e-12
-2.9659e-12
1.93195e-13
1.0482e-13
1.19071e-13
9.28894e-11
-6.36473e-12
1.93692e-11
-1.19012e-11
1.38669e-11
-1.51043e-10
0
-2.25956e-11
2.45265e-11
1.06666e-12
1.3542e-10
-4.60532e-11
-4.7642e-11
-8.21402e-11
-3.78197e-13
-1.16149e-12
-4.23749e-11
-3.81084e-13
2.94183e-11
0
6.30689e-11
-8.51454e-11
-1.2199e-10
5.80931e-13
2.72943e-11
2.84143e-12
5.11831e-11
-2.08362e-11
-6.46953e-15
-4.16435e-11
5.39227e-11
-8.87153e-13
-4.21159e-11
4.62916e-11
-5.92627e-13
1.00291e-10
-1.78649e-12
-2.08623e-11
3.72179e-12
3.85739e-11
-1.63953e-14
-1.18416e-14
2.48235e-11
1.83306e-13
-1.18721e-13
-8.02717e-12
-4.28192e-14
-2.97813e-13
2.09337e-11
5.93528e-13
-1.18548e-12
1.4803e-13
1.47989e-13
1.25789e-11
1.48024e-13
-6.96442e-11
0
-7.42328e-13
-2.13635e-11
2.83938e-11
9.23247e-13
3.91427e-13
-1.62773e-12
-3.67399e-13
-2.16772e-11
2.84768e-13
1.64014e-11
4.45139e-13
-2.17766e-11
8.26166e-12
5.56907e-11
0
-4.37496e-14
6.90551e-14
-6.16529e-13
8.81762e-13
4.757e-11
2.86173e-12
-2.10136e-11
6.87661e-11
2.92534e-14
-1.18714e-12
2.95347e-13
-9.43804e-13
2.53789e-11
1.68453e-12
1.08671e-11
-2.9601e-13
-2.16007e-11
2.30515e-11
1.31456e-12
1.9519e-14
-1.92977e-11
-1.87423e-14
1.76643e-11
-4.41595e-11
8.32933e-12
-3.9953e-12
5.91831e-13
-1.17001e-11
4.55935e-11
4.54652e-12
1.21859e-11
2.54557e-12
1.28356e-11
4.33657e-11
-1.28497e-11
-1.18385e-12
2.97484e-11
9.02418e-12
1.70116e-13
3.97335e-11
2.04562e-12
2.66731e-13
8.08214e-13
-2.26519e-11
-1.60301e-11
1.48027e-13
5.9265e-13
1.38682e-11
-5.58509e-11
-1.71368e-12
-2.94384e-13
2.065e-12
-5.7951e-11
1.40764e-11
-8.24579e-12
-2.01537e-11
-3.7835e-11
6.60138e-12
-5.55437e-11
-1.14171e-11
1.67709e-11
-2.38815e-11
2.34031e-11
7.75285e-12
6.73828e-12
-1.48395e-13
-2.21204e-11
-2.87843e-11
9.11877e-14
-1.47993e-13
-2.45615e-11
-5.91861e-13
-2.42727e-11
0
-1.48379e-13
7.42413e-13
8.89222e-13
-1.4813e-13
-1.4802e-13
-2.58897e-11
9.76267e-12
0
-2.73691e-11
-2.20545e-11
-2.96252e-13
-1.48201e-13
3.37711e-11
7.6951e-12
-7.39135e-13
2.26073e-11
3.50258e-11
-7.38931e-13
3.16196e-11
1.47817e-13
-2.70813e-11
2.66613e-11
7.40004e-13
-1.4782e-13
-2.53792e-11
-9.22218e-13
-4.43077e-13
6.94138e-12
5.16401e-13
8.63099e-12
1.51461e-12
2.20539e-11
0
1.2559e-11
-7.19317e-12
-7.20343e-12
-2.0358e-12
-7.40233e-12
-1.10771e-12
4.90404e-12
-2.95427e-13
1.4792e-13
0
-1.56651e-11
1.12244e-11
1.48061e-13
3.18932e-11
-2.00262e-11
0
-1.03274e-12
-1.32957e-12
-6.80295e-12
-1.03534e-12
-1.7882e-11
-3.01283e-11
1.58043e-11
-4.37615e-11
-2.18093e-11
1.47877e-13
-8.29767e-12
9.89738e-12
2.24795e-11
-3.10648e-12
-2.51183e-11
-9.59017e-13
1.32186e-11
2.49883e-11
1.47876e-13
2.44933e-11
6.63313e-12
8.86223e-12
2.95839e-13
1.48007e-13
-2.08418e-11
-8.48324e-13
6.89492e-12
1.10646e-13
-4.53589e-12
3.31646e-13
7.4844e-12
-1.47794e-13
2.05727e-11
-1.48121e-13
-2.95963e-13
1.45543e-11
-2.95412e-13
-2.27491e-11
7.38577e-13
-1.47696e-13
-2.42373e-11
0
1.4812e-13
1.92655e-12
1.33306e-11
-2.1461e-11
-4.43738e-13
-2.30696e-11
2.85404e-11
2.18896e-11
2.95982e-13
0
4.44599e-13
-1.48056e-13
2.96026e-13
1.03569e-11
-5.91661e-13
2.95805e-13
-3.4017e-11
8.8746e-13
5.01545e-11
0
2.96103e-13
2.1313e-11
-2.73702e-11
-5.91523e-13
-1.47845e-13
1.47847e-13
4.4353e-13
1.47835e-12
2.95733e-13
0
2.96007e-13
4.64548e-11
-1.47872e-13
2.3649e-11
-7.39012e-13
-1.4784e-13
-5.91341e-13
0
-5.39421e-11
-2.82418e-11
-3.10678e-12
2.95809e-13
-3.3855e-11
2.95598e-11
1.47854e-13
5.76964e-12
1.47929e-13
-4.43464e-13
-2.46764e-11
2.9563e-13
-2.95784e-13
0
-5.91364e-13
-3.40027e-11
-1.47938e-13
5.92257e-13
2.45771e-11
4.43688e-13
-2.64533e-11
-2.95612e-11
-2.35116e-11
-1.59719e-11
2.67586e-11
-2.114e-11
-1.47928e-13
-5.92215e-13
2.961e-13
0
1.18222e-12
1.478e-13
5.91472e-13
-5.02868e-12
-2.9566e-13
-2.7192e-11
-2.12859e-11
7.39467e-13
4.43668e-13
-5.91124e-13
2.28989e-11
-2.86728e-11
-4.43652e-13
-7.39719e-13
-4.43584e-13
-2.97044e-11
-4.6101e-11
-2.9556e-13
2.27568e-11
-1.4773e-13
-4.43256e-13
-8.8704e-13
1.99707e-11
2.29405e-11
0
4.43571e-13
-2.95618e-13
2.95594e-13
0
-2.45332e-11
-2.67583e-11
0
-1.4799e-13
2.2799e-11
2.87121e-11
0
7.39413e-13
0
-1.47858e-13
-1.47875e-13
1.47923e-13
-2.95975e-13
-2.96081e-13
7.39884e-13
-2.32288e-11
0
2.5735e-11
-9.90888e-12
0
-7.39494e-13
-1.47918e-13
-2.32276e-11
-4.43912e-13
-3.38808e-11
-3.25431e-11
5.91576e-13
-2.80974e-12
-1.47879e-13
0
1.47872e-13
-1.47883e-13
-4.43747e-13
-1.99725e-11
-1.18336e-12
2.2036e-11
-1.47869e-13
1.47872e-13
2.91335e-11
1.03516e-12
2.58753e-11
-1.33069e-12
-2.95761e-13
5.47266e-12
0
-1.30132e-11
-2.30677e-11
4.43686e-13
1.0355e-12
5.91693e-13
1.47877e-13
-2.55774e-11
1.56728e-11
2.95761e-13
1.47888e-13
0
1.47882e-13
1.47927e-13
-7.39868e-13
2.02716e-11
1.47904e-13
4.43554e-13
-1.47847e-13
6.50612e-12
1.03523e-12
-3.99259e-12
2.30691e-11
-5.02932e-12
0
2.13061e-11
2.66212e-12
2.35073e-11
-1.47841e-13
4.43593e-13
-2.15929e-11
-7.3936e-13
-2.94237e-11
-1.33088e-12
-2.5587e-11
-2.95788e-13
1.47851e-12
-2.17305e-11
2.32111e-11
2.95743e-13
2.95827e-13
-2.32176e-11
-2.27695e-11
-3.54823e-12
1.47847e-13
-1.47842e-13
7.39119e-13
-8.8696e-13
1.47859e-13
0
2.95887e-13
-2.36658e-12
-1.47873e-13
8.87101e-13
2.39504e-11
1.47835e-13
2.48366e-11
0
3.09096e-11
2.47037e-11
-1.9236e-12
-1.34626e-11
2.12979e-11
-1.03512e-12
-1.4786e-12
-2.83885e-11
-2.15885e-11
-1.47891e-13
2.95851e-13
-2.95913e-13
1.33137e-12
-2.33707e-11
-9.90941e-12
0
-2.95768e-13
2.20343e-11
-7.39421e-13
-2.94307e-11
-1.47911e-13
2.95844e-13
0
-2.9581e-13
0
-2.9577e-12
-1.47884e-13
1.47881e-13
-1.47878e-13
-5.91513e-13
-1.47892e-13
-1.47904e-13
-2.44032e-11
2.08525e-11
-4.43651e-13
7.39447e-13
2.8988e-11
8.87363e-13
2.54351e-11
2.499e-11
4.43624e-13
2.73589e-11
1.47886e-13
-1.47883e-13
-5.17612e-11
-2.95818e-13
-1.77512e-12
7.39604e-13
4.43679e-13
-2.52854e-11
1.56733e-11
-1.47867e-13
-2.95764e-13
2.95763e-13
0
0
-1.18362e-12
-2.47068e-11