/*--------------------------------*- C++ -*----------------------------------*\
  =========                 |
  \\      /  F ield         | OpenFOAM: The Open Source CFD Toolbox
   \\    /   O peration     | Website:  https://openfoam.org
    \\  /    A nd           | Version:  10
     \\/     M anipulation  |
\*---------------------------------------------------------------------------*/
FoamFile
{
    format      ascii;
    class       volScalarField;
    location    "0.4";
    object      gradTy;
}
// * * * * * * * * * * * * * * * * * * * * * * * * * * * * * * * * * * * * * //

dimensions      [0 -1 0 1 0 0 0];

internalField   nonuniform List<scalar> 
47104
(
4.37803e-13
4.37779e-13
2.88613e-13
-9.20384e-15
-4.45675e-13
2.97116e-13
9.95436e-12
3.07238e-13
-2.88822e-13
-7.61313e-12
6.04907e-13
4.36832e-13
6.45845e-13
5.00111e-12
-2.60679e-13
-5.6433e-13
-2.17499e-13
-1.42752e-13
1.21668e-13
1.60462e-13
6.84422e-12
6.87992e-13
4.0709e-14
2.0725e-13
5.22688e-13
-2.83873e-14
-1.00332e-11
-1.04742e-12
-4.27947e-14
7.80737e-12
9.26216e-15
3.07703e-13
-9.81717e-14
-4.96309e-12
1.98156e-13
5.94252e-13
4.8656e-14
1.58158e-13
-3.14662e-13
-4.16197e-13
-7.1668e-12
-7.02995e-13
1.07347e-12
-1.17306e-13
1.16798e-12
9.02565e-14
4.3755e-12
3.83547e-13
7.54238e-12
-3.64537e-13
-3.60581e-13
6.82365e-12
-3.46931e-13
2.46253e-15
-1.51453e-13
-2.94533e-13
-3.20049e-14
1.27164e-13
2.73115e-12
1.28309e-13
9.60197e-14
5.88769e-13
-8.02779e-13
-3.32436e-13
-1.10415e-11
2.44905e-14
-4.53008e-12
-9.28594e-14
-7.66058e-12
5.13365e-13
1.98883e-13
-6.86514e-12
-5.91954e-14
7.79726e-13
8.42943e-14
2.51101e-13
-1.00785e-13
7.99296e-12
-2.90841e-12
8.29828e-12
-2.16963e-14
-2.50639e-13
3.87945e-13
1.60857e-13
1.02751e-11
-7.61539e-12
-1.58003e-14
-5.90529e-13
-7.22127e-12
-7.17755e-13
9.51284e-15
1.39735e-13
4.37336e-13
-7.34223e-13
1.48533e-13
-7.87241e-12
1.57886e-13
-8.49753e-12
-7.1643e-12
-8.04157e-12
-8.91003e-14
0
-1.25438e-11
-3.73067e-12
1.49178e-13
-1.49177e-13
1.08935e-11
6.86905e-12
-8.21392e-12
6.01163e-14
-6.28871e-12
-9.59675e-14
7.14576e-12
5.23434e-12
2.20626e-12
-2.28104e-12
-3.29014e-12
-2.31954e-12
1.23471e-14
-4.41381e-13
-3.46511e-13
-1.14037e-13
1.19934e-11
8.75323e-12
-4.89917e-13
-2.49477e-13
-1.39641e-11
-9.23025e-12
7.58059e-13
-7.68586e-12
6.86074e-12
8.0775e-14
-1.71442e-13
-1.66977e-11
1.18975e-12
2.11787e-11
-9.10005e-15
1.51913e-13
1.74672e-13
-8.25778e-12
-6.97289e-12
-1.06118e-13
1.85906e-11
1.7351e-11
-1.13644e-12
-2.10385e-11
1.20298e-12
2.29084e-13
-1.64417e-12
7.03261e-13
-7.11434e-12
1.00103e-11
-1.77547e-11
-1.0435e-13
8.6744e-13
4.53536e-14
-5.98503e-13
-4.53598e-13
-8.21475e-12
1.56934e-11
6.93567e-12
-1.695e-13
-1.5446e-11
-1.38911e-11
1.45257e-11
2.38499e-13
2.39436e-13
3.07323e-13
9.22292e-12
7.00128e-12
7.21233e-12
-2.54172e-12
1.51486e-11
1.34878e-11
-1.5275e-11
-1.06228e-12
1.8806e-13
-6.00728e-14
7.98519e-12
-1.45386e-11
-1.89758e-13
-3.50839e-13
2.09477e-12
-5.4204e-12
-1.12168e-13
-8.82409e-12
-9.83203e-12
-3.36682e-13
-8.46045e-14
-9.21734e-14
0
-7.16759e-12
-7.01667e-12
-2.9838e-13
4.47445e-13
-1.04407e-11
-6.86336e-12
1.19447e-12
2.98674e-13
6.71449e-12
2.09334e-13
3.43347e-12
-9.54496e-12
-9.83427e-12
-4.76913e-12
-4.47107e-13
1.04303e-12
-1.49134e-13
3.58243e-12
6.01426e-14
-4.93685e-12
-2.22222e-11
-1.85918e-11
-1.33737e-11
3.31187e-12
6.45519e-13
-1.93597e-12
-3.44167e-13
1.74851e-13
1.38217e-13
-2.31373e-13
1.38059e-11
-8.64153e-12
1.96061e-11
3.37284e-11
4.27046e-11
3.96009e-11
-2.39916e-12
-1.45479e-13
-2.4716e-13
5.21083e-12
-9.3534e-13
7.95341e-12
-7.94071e-08
-1.11417e-07
-1.14405e-07
-9.78662e-08
-1.06542e-09
-2.4709e-13
-5.44829e-14
-2.64721e-13
5.93017e-13
-1.74001e-11
-7.49119e-09
8.28153e-09
8.80393e-09
6.36495e-09
-1.72569e-10
-7.09132e-15
3.62899e-15
-3.17467e-14
2.38697e-13
1.80813e-11
1.70524e-09
-1.86351e-09
-2.0163e-09
-1.43156e-09
4.77733e-11
2.59566e-13
6.81987e-14
4.6866e-13
-2.01671e-12
2.94279e-12
2.22833e-08
-2.23279e-08
-2.34088e-08
-1.78613e-08
5.11738e-10
-2.54234e-11
-2.97838e-13
-5.71267e-14
1.15607e-12
-2.93567e-12
3.12359e-09
3.82006e-09
3.90106e-09
3.7998e-09
-1.49179e-10
4.30999e-11
1.67203e-13
4.36654e-14
-2.98428e-13
1.03239e-13
-1.50893e-11
-2.45231e-13
-3.40897e-13
1.0025e-14
1.8331e-11
-1.76363e-11
1.91694e-13
1.49184e-13
-8.65563e-12
1.05849e-11
-5.2136e-12
5.36418e-12
-2.68221e-12
-8.93881e-13
7.60474e-12
2.38814e-12
-2.98375e-13
-7.74016e-12
-2.97288e-13
-7.38331e-13
-5.42825e-12
-2.49054e-12
1.80199e-11
-1.32042e-12
-4.28183e-12
-5.05285e-12
-8.78058e-12
-7.82848e-12
-1.56083e-13
-1.19669e-11
4.71852e-09
4.5786e-09
4.57178e-09
4.63562e-09
2.94426e-09
-1.37477e-11
-1.64447e-13
1.09572e-13
-2.9601e-13
-1.40576e-09
1.65921e-05
1.71342e-05
1.72673e-05
1.70262e-05
1.74093e-05
3.10618e-09
1.3494e-12
4.71154e-13
-2.37601e-11
-7.03045e-08
-0.591581
-0.900884
-0.905362
-0.894339
0.0917192
5.55644e-09
-1.03138e-14
-7.78045e-12
-6.35755e-12
-1.40928e-10
-0.00344598
-0.0117301
-0.0122287
-0.0111449
-0.00326407
1.35597e-10
7.52108e-12
-1.98304e-13
3.22645e-12
7.88016e-10
0.000216687
0.000696053
0.000730657
0.00065657
-0.00381382
-2.58676e-11
1.26178e-13
1.5142e-11
1.31759e-11
4.12082e-09
0.00928701
0.0332302
0.0341233
0.0319756
-0.00425742
-7.92394e-10
2.8939e-14
-4.0976e-13
2.0133e-11
1.71161e-07
0.454751
0.595659
0.59786
0.591543
-0.0927943
-7.14524e-09
-1.5328e-13
-6.81869e-12
2.64375e-13
5.8895e-08
7.01342e-07
5.95678e-07
5.90036e-07
6.16499e-07
2.16486e-07
6.35305e-12
3.38937e-14
-1.48842e-13
-5.94368e-13
1.34327e-11
4.54687e-12
7.6169e-12
2.78327e-12
2.3472e-12
-1.47648e-13
1.18898e-11
2.977e-13
-8.77125e-12
4.45245e-13
-3.0859e-12
-5.37075e-12
-6.50586e-12
-4.62661e-12
2.90378e-13
2.64523e-12
-4.45151e-13
-2.82407e-12
-1.04743e-11
6.51133e-13
-1.05799e-10
-1.93213e-08
-7.25689e-08
-6.85931e-08
-8.08601e-08
1.44407e-09
-6.74007e-14
-1.08408e-11
8.57569e-12
5.90152e-13
-1.07968e-06
-0.473939
-0.576786
-0.577872
-0.575299
0.0172842
7.34988e-09
2.7031e-12
9.92412e-12
2.5616e-10
0.0133255
3.29419e-06
1.12371e-11
-7.29921e-14
2.05154e-10
0.000344228
2.88838e-07
1.14206e-11
1.63939e-13
-4.0094e-11
7.65681e-05
-4.83373e-08
-5.91675e-13
-1.47488e-14
-5.20994e-10
-0.000633531
-1.25037e-06
-1.15858e-11
2.23654e-13
-4.07936e-12
0.000581072
7.32993e-07
2.65473e-13
-2.53908e-13
-1.57185e-11
3.69705e-07
0.000196544
0.000281035
0.000281577
0.00027936
-1.95891e-05
1.12493e-10
4.30094e-14
-1.4865e-13
2.67044e-12
5.87608e-13
2.0318e-12
-2.45746e-12
5.49375e-12
2.07607e-11
-6.02512e-12
1.23172e-11
-1.48668e-13
-6.84048e-12
-2.2284e-12
0
1.45036e-13
-6.49477e-12
-1.16917e-11
-5.07851e-12
8.67933e-12
6.2392e-12
0
-2.98097e-13
9.58127e-13
-1.07614e-10
-7.61382e-09
-7.79548e-08
-7.28496e-08
-8.8485e-08
1.64263e-09
-4.4046e-12
7.90839e-12
6.94149e-12
2.3751e-12
-1.13512e-06
-0.487426
-0.60206
-0.60358
-0.599914
0.018086
7.7416e-09
-6.71084e-12
3.93759e-14
1.2768e-10
0.0165644
3.83625e-06
-7.96543e-12
1.79569e-13
2.59579e-10
0.000440539
4.19538e-07
7.96003e-12
-1.4971e-13
-2.92603e-11
5.46859e-05
-6.85134e-08
7.57951e-12
7.32875e-12
-7.00011e-10
-0.00168047
-1.71625e-06
-3.9572e-12
6.69815e-12
2.09427e-11
-0.000386207
8.25155e-07
-7.31897e-12
-7.60962e-12
4.86286e-13
3.79639e-07
0.00020239
0.000321656
0.000322699
0.00030947
-9.38751e-06
1.39026e-10
3.14342e-12
-6.69072e-12
0
0
1.27612e-11
9.09158e-12
6.63902e-12
2.90129e-12
3.52938e-12
1.64889e-11
-2.9742e-13
-1.04154e-12
-3.27115e-12
1.17739e-12
2.90252e-13
-5.77579e-12
-3.46582e-12
-2.32308e-12
-2.79742e-12
2.52762e-12
7.73586e-12
-1.23398e-11
-4.13184e-12
-1.39818e-10
-3.04235e-09
-7.20558e-08
-6.66443e-08
-8.34828e-08
1.65367e-09
6.27822e-14
-5.86426e-14
-3.13354e-14
1.66639e-11
-1.13575e-06
-0.488054
-0.603213
-0.604795
-0.601007
0.0181085
7.74216e-09
-8.08252e-12
1.09688e-11
3.77004e-11
0.0165699
3.8847e-06
-7.71463e-12
-1.01939e-11
2.94018e-10
0.00045221
4.36027e-07
-7.78299e-14
3.43272e-13
-3.8202e-11
4.29488e-05
-7.14219e-08
7.65764e-12
1.05221e-11
-7.31263e-10
-0.000879543
-1.74915e-06
1.04854e-11
-3.72867e-13
2.88973e-11
0.000652609
8.2806e-07
-1.5912e-13
-1.55306e-13
-1.77709e-11
3.80362e-07
0.000202747
0.000322883
0.000324019
0.000317058
-2.09924e-05
1.36424e-10
-1.0234e-11
1.48765e-13
-9.2148e-12
7.94529e-12
-4.93355e-12
1.50152e-11
1.42944e-11
1.16109e-12
-7.06432e-12
3.41962e-12
-1.48797e-13
0
1.57692e-11
-2.35616e-12
-3.77574e-12
-1.01146e-11
-2.25433e-11
1.2785e-11
1.47321e-13
-2.52902e-12
-5.9536e-13
7.45202e-14
1.97654e-11
-1.18905e-10
-2.49781e-09
-7.16969e-08
-6.62756e-08
-8.32272e-08
1.65394e-09
2.89955e-12
-5.43313e-13
-3.7315e-13
8.92957e-13
-1.11569e-06
-0.488057
-0.603311
-0.6049
-0.601097
0.0181087
7.64727e-09
7.25114e-12
-3.69655e-13
1.11296e-09
-0.00175933
3.88765e-06
2.64033e-13
6.65038e-13
3.3037e-10
0.000722966
4.36419e-07
-7.27545e-12
-8.5445e-12
-2.50985e-11
4.66776e-05
-7.15e-08
-5.67203e-14
2.71853e-13
-7.36749e-10
-0.000854791
-1.75124e-06
-1.29896e-13
9.19142e-12
3.15682e-11
0.000653788
8.28518e-07
2.17742e-13
-5.89802e-14
-1.51063e-11
3.79192e-07
0.000202852
0.000323
0.00032412
0.000316087
-2.07991e-05
1.19055e-10
1.34943e-13
1.48836e-13
5.50209e-12
-1.01582e-11
7.84068e-12
1.5748e-11
1.14149e-11
9.73153e-12
2.94541e-13
3.71908e-12
1.4887e-13
-4.46712e-13
-7.14334e-12
-3.97865e-12
-1.74476e-12
2.02606e-12
-9.40734e-12
-8.436e-12
-5.74881e-12
2.38114e-12
-2.97795e-13
-5.87025e-13
-3.90298e-12
-1.2412e-10
-5.53233e-09
-7.58797e-08
-7.07337e-08
-8.66998e-08
1.65343e-09
1.14448e-13
-2.56581e-13
2.76337e-14
-4.0163e-13
-1.10873e-06
-0.487889
-0.602861
-0.604413
-0.600674
0.0181078
7.64576e-09
6.5605e-14
8.38094e-14
1.13559e-09
-0.00297639
3.84918e-06
-8.92981e-14
7.58114e-12
3.33385e-10
0.000694126
4.20454e-07
7.70154e-12
-2.9202e-13
-4.92066e-11
5.3412e-05
-6.82859e-08
-6.33928e-13
-7.99576e-12
-7.13566e-10
-0.000840005
-1.71598e-06
-7.84726e-12
2.94185e-13
6.18436e-12
0.00065232
8.27477e-07
6.49723e-13
6.15865e-14
2.58815e-11
3.77786e-07
0.000203032
0.000322232
0.000323282
0.000310338
-9.38938e-06
1.35508e-10
-4.85014e-13
1.48892e-13
-2.82646e-12
-2.35699e-12
6.83238e-12
-8.682e-13
6.07804e-12
3.63546e-12
2.50517e-12
0
-7.44626e-13
-1.0276e-11
2.08395e-12
7.37435e-13
1.29702e-11
-1.30643e-12
0
1.3118e-12
-3.24517e-12
-1.42906e-11
1.48938e-13
-9.59447e-12
6.848e-13
-1.22971e-10
1.88617e-08
1.14456e-08
1.60739e-08
-1.69371e-09
1.26741e-09
-3.24927e-11
7.12826e-12
2.10599e-12
8.92864e-13
-1.1268e-06
-0.480105
-0.585616
-0.586826
-0.583946
0.0175393
6.84171e-09
9.30161e-12
9.33191e-12
-2.16852e-10
0.0140667
2.75679e-06
-7.1271e-12
1.88911e-13
-3.92081e-11
0.000358849
2.09396e-07
-9.6525e-12
5.38066e-13
-1.24686e-12
4.7431e-05
-3.38378e-08
2.55701e-13
1.49357e-11
-1.45586e-11
-0.000628622
-8.53082e-07
3.12451e-12
-3.57308e-13
2.00058e-11
0.000617067
6.49572e-07
2.60952e-13
-7.62137e-12
-5.90198e-12
3.73114e-07
0.000166825
0.000195045
0.000195046
0.000197512
-1.89022e-05
1.18093e-10
-2.85961e-12
0
4.16653e-12
2.94872e-12
9.61592e-12
-2.46734e-12
-8.70883e-13
-1.50094e-11
-1.41574e-11
0
-4.46885e-13
0
5.95421e-13
-2.50774e-12
-9.6202e-12
3.19369e-12
-8.56466e-12
2.62326e-12
-1.62243e-12
-4.46621e-13
-2.68119e-12
3.13892e-14
-3.60994e-13
1.2869e-11
3.36855e-11
4.71461e-11
1.66432e-11
3.75946e-11
-8.15588e-11
-1.10642e-11
2.10758e-14
1.84332e-14
2.97635e-13
-2.58802e-08
-4.08696e-05
-4.28257e-05
-4.28555e-05
-4.2814e-05
-3.76998e-05
7.64301e-11
2.62651e-12
1.09307e-13
-3.18052e-13
3.21816e-07
-1.33433e-09
8.82753e-12
1.70439e-13
-1.47559e-11
6.30142e-09
-8.79457e-11
-1.7406e-13
-7.33073e-12
1.45116e-11
1.75137e-09
-2.93695e-12
-1.76173e-11
1.90226e-13
2.25094e-13
-1.727e-08
3.63516e-10
9.36365e-14
6.78651e-12
-1.17903e-12
-1.67739e-06
-8.28131e-10
8.96286e-12
-3.0518e-13
4.64941e-13
4.37727e-09
-1.38849e-07
-1.45494e-07
-1.45958e-07
-1.43984e-07
-3.96014e-09
6.19577e-12
-1.49917e-13
0
-2.52982e-12
-5.89776e-13
9.17933e-12
-1.13212e-11
3.04832e-12
5.82974e-12
2.80227e-12
-2.38187e-12
1.48971e-13
-1.9359e-12
-6.9951e-12
6.92848e-12
2.90917e-13
3.47386e-12
-3.61841e-12
-8.14325e-12
2.94762e-13
-6.25212e-12
1.4895e-13
-1.04054e-11
-2.39016e-11
-1.46817e-12
1.68466e-13
1.26174e-11
-1.8425e-13
6.67998e-12
3.30379e-13
5.40433e-12
-7.4528e-12
-8.67311e-12
1.4884e-11
-2.12304e-11
3.16866e-11
-1.6042e-11
-1.58728e-12
-2.92524e-13
1.8548e-11
0
-4.75416e-13
-2.66417e-13
2.0386e-11
2.31525e-11
8.16792e-13
7.39176e-12
-1.42497e-13
-2.0671e-11
-3.61648e-13
-1.38407e-11
7.77308e-14
2.6919e-13
9.31726e-14
2.40843e-13
1.43697e-11
-7.1943e-12
-7.38747e-12
1.6775e-11
3.34023e-12
-6.75478e-12
-1.13425e-11
1.21239e-13
-1.61516e-11
-2.93056e-11
2.61222e-11
7.40012e-12
6.9053e-12
2.88377e-13
-1.40501e-11
-6.89086e-12
-1.11898e-11
5.64134e-12
-2.18698e-12
-1.23149e-11
-1.98593e-11
1.13625e-11
-5.95753e-13
-1.17549e-11
-1.60609e-11
-2.47187e-12
3.9075e-12
3.18444e-12
-2.90952e-13
-1.6952e-11
-6.84684e-12
1.48958e-13
-1.48902e-13
1.20535e-11
-1.23762e-11
7.26523e-13
1.17085e-11
-8.52796e-12
9.15201e-12
-4.41957e-13
2.67915e-12
-8.04263e-12
-1.25678e-13
6.02319e-12
-1.08298e-11
-2.98077e-13
1.10313e-11
2.09404e-13
9.2522e-12
-1.54261e-11
1.88982e-12
-1.2563e-11
2.23237e-13
1.19158e-12
3.36234e-13
-1.39957e-12
2.55572e-11
1.82152e-12
-2.88313e-13
1.06565e-11
-2.11366e-12
7.66782e-12
1.12791e-11
5.00627e-13
-1.16219e-12
-1.36772e-11
1.24634e-11
6.16141e-14
-2.11036e-13
5.89732e-13
3.2602e-11
-4.08321e-13
-1.06806e-12
8.09648e-15
2.90699e-11
-1.79041e-11
-1.00773e-11
-9.22893e-13
-8.39868e-13
1.16822e-11
-5.74043e-13
7.81564e-13
-1.75528e-11
-2.94263e-13
1.90599e-11
-1.11076e-11
1.44704e-12
1.09192e-12
3.52601e-13
4.29335e-11
2.47554e-12
-1.5304e-11
-2.3331e-11
-4.88929e-12
3.57726e-12
7.2326e-12
-1.10975e-13
6.5526e-12
2.97563e-13
-4.41869e-12
1.59788e-12
3.03508e-12
4.62549e-12
-8.71871e-13
1.47334e-11
-8.92898e-13
8.78749e-12
0
5.95208e-13
2.94647e-12
8.71683e-12
1.44516e-13
-1.44507e-13
-1.52505e-11
9.57465e-12
1.04181e-12
-4.46793e-13
5.58469e-13
7.79856e-13
-2.68727e-12
-8.51935e-14
-1.84013e-11
-1.33822e-14
-3.03694e-12
1.00397e-11
-1.93663e-12
-1.83384e-13
-6.86841e-12
0
-1.0006e-11
3.2455e-13
2.67753e-11
3.04763e-11
-1.98197e-12
7.20131e-13
0
-1.04093e-11
-1.08926e-13
7.72487e-13
4.06827e-12
1.40836e-13
-8.13266e-12
6.71397e-12
-1.63756e-11
4.30641e-11
-4.62954e-13
9.95962e-12
1.04428e-13
1.39688e-11
5.07893e-13
1.49839e-13
8.13984e-12
-9.58324e-12
2.19872e-12
8.46257e-13
1.11117e-13
6.28144e-13
1.75532e-14
2.94407e-13
-2.92167e-11
7.29426e-13
-9.80735e-12
9.79057e-12
3.69579e-15
-4.87858e-12
1.43906e-11
-2.05154e-12
7.34117e-13
2.91805e-13
6.51892e-13
-4.37241e-13
-1.01925e-12
1.4891e-13
-1.48773e-13
1.48741e-11
1.11823e-11
-1.35821e-11
3.17893e-12
-3.19533e-12
-2.94576e-13
-1.488e-13
9.08481e-12
4.46681e-13
-2.82733e-12
0
-2.90671e-13
-2.89151e-13
-3.03587e-12
2.32454e-12
-1.0312e-12
1.25015e-11
6.10622e-12
4.63565e-13
6.09361e-13
6.78213e-12
1.74662e-11
-2.6393e-13
5.87305e-12
9.13278e-13
1.37918e-12
7.89882e-12
-1.20058e-12
9.81383e-12
2.97772e-13
-3.24604e-11
-2.28227e-11
-3.63918e-11
2.82778e-13
-3.84303e-12
-3.15467e-11
2.0231e-11
-1.49878e-13
7.54514e-12
8.10967e-13
-3.48653e-11
-4.18664e-11
7.62797e-12
-9.68794e-12
1.30576e-11
-2.94938e-12
2.28802e-11
-8.91454e-14
-7.01933e-12
2.43339e-12
3.27792e-11
9.23683e-13
-1.18743e-14
-1.1751e-13
-1.58942e-11
2.81878e-13
-9.93804e-13
4.08659e-14
4.25959e-14
-8.25915e-13
-2.87791e-13
-1.41593e-11
-2.34209e-13
-7.69707e-14
-8.55776e-13
-1.70931e-11
-6.03234e-12
-1.03289e-11
-5.87161e-13
-1.80896e-11
-1.12e-11
1.44842e-11
-9.96955e-12
-1.4891e-13
-4.46322e-13
3.24023e-12
3.34108e-12
2.89093e-12
0
3.05064e-12
-4.41876e-13
-1.48802e-13
-9.68074e-12
0
0
-2.94827e-13
2.91028e-13
2.31731e-12
-2.31717e-12
1.4547e-13
3.095e-12
2.38144e-12
1.48946e-13
-5.95644e-15
5.67092e-13
7.52525e-12
-1.76135e-11
-4.85868e-12
-8.92521e-13
-8.17122e-14
1.06847e-12
1.78762e-11
-8.19633e-14
-7.94395e-12
2.47648e-13
1.67917e-12
-1.28083e-11
1.96976e-13
-1.19238e-11
-2.59258e-13
-1.13741e-11
-1.7198e-11
-8.83093e-12
-4.06731e-13
-6.96613e-14
-8.22925e-11
3.51613e-13
3.28134e-14
8.06554e-12
-4.07025e-13
-3.36116e-11
4.46847e-14
4.88862e-12
2.74802e-13
-2.50863e-13
-1.32487e-13
-2.21086e-13
-3.39403e-15
-9.23699e-12
1.95692e-12
-6.83467e-13
-3.41524e-14
3.93029e-12
9.64515e-14
2.95918e-13
4.55657e-12
-2.66112e-11
-2.01487e-13
8.93208e-12
-2.02886e-13
1.36507e-11
-7.98583e-13
-1.3826e-11
7.98855e-12
6.26595e-12
1.02406e-12
2.76705e-11
-1.03539e-11
1.48925e-13
1.48788e-12
1.62086e-12
5.81811e-13
-7.24016e-12
-1.05707e-11
7.27251e-13
1.17884e-12
-2.38112e-12
-1.02776e-11
-8.63809e-12
1.48853e-13
-2.95036e-13
0
0
-1.88806e-12
2.91569e-13
1.47512e-13
-1.02732e-11
2.97947e-13
-2.96416e-12
3.20861e-14
1.06335e-13
4.1011e-13
-3.80113e-13
-1.16005e-12
-2.33813e-12
-5.49265e-13
3.86404e-12
-1.66955e-13
8.84255e-12
8.92472e-13
-4.14948e-11
-1.24301e-11
2.27078e-11
1.93746e-12
3.4809e-12
-1.67669e-11
-2.48052e-11
-4.73315e-13
2.08285e-12
-6.18591e-14
-4.55017e-13
6.76503e-12
-3.3882e-14
-3.58526e-13
-1.85226e-11
-4.10308e-13
5.30068e-13
4.63953e-13
6.38801e-13
1.87875e-11
-3.20203e-11
-8.96813e-14
2.11167e-13
4.61033e-13
4.54604e-13
-3.75836e-14
1.91422e-11
-4.37023e-13
6.65868e-13
4.98212e-13
-1.11935e-12
-2.00587e-11
5.58865e-14
-1.58267e-13
2.24552e-13
-1.20691e-12
4.22717e-12
-1.84247e-12
5.16802e-12
-1.76188e-12
6.79281e-12
4.8279e-13
-2.5921e-15
-5.9584e-13
1.47352e-11
5.89944e-13
-9.03778e-12
-3.33994e-12
0
2.62366e-12
1.13559e-11
4.7638e-12
-2.97966e-13
7.5966e-12
1.48879e-13
2.95043e-13
-1.45701e-13
3.62671e-12
-2.75624e-12
-1.45683e-13
5.60537e-12
-2.68032e-12
4.32059e-12
-7.28224e-14
2.31381e-13
-1.49034e-11
2.17458e-11
2.54293e-13
2.5493e-13
2.13357e-13
-1.2696e-11
-1.68722e-13
4.83227e-12
3.15757e-12
2.97807e-13
2.56884e-11
-1.45494e-11
-2.15979e-11
2.69965e-11
-3.12468e-12
2.66927e-11
1.48045e-11
4.07288e-13
-5.65479e-13
1.38527e-11
-2.1266e-12
-6.55332e-14
-3.35828e-13
-1.13763e-11
-1.32664e-11
-2.72533e-12
-1.41785e-11
1.15261e-11
8.24468e-14
-3.45517e-13
2.83801e-11
-7.43363e-13
-4.75656e-13
-1.40848e-13
-1.88638e-13
2.03427e-13
4.30211e-15
-1.16325e-11
4.653e-13
0
-4.03569e-14
2.92884e-13
8.04838e-13
2.12002e-13
3.37352e-13
3.9474e-12
-6.49193e-12
8.62373e-12
-9.08133e-12
4.77254e-12
8.05353e-13
1.31749e-13
7.22553e-14
-1.48979e-13
-8.33654e-12
-8.70079e-12
3.34992e-12
-7.25208e-13
0
-2.47596e-12
1.47472e-13
1.48896e-12
-1.49003e-13
1.26608e-11
2.23281e-12
-3.24322e-12
-9.74337e-12
-6.80033e-12
-6.51099e-12
9.01611e-12
-1.6363e-11
7.44377e-13
0
-3.0521e-14
-7.29237e-13
-9.88584e-13
5.11484e-12
4.90304e-12
2.61455e-11
4.66257e-12
1.37745e-11
6.43056e-12
7.01741e-13
-1.27118e-11
8.9366e-13
-8.85359e-14
-9.56922e-13
2.87721e-12
-2.68426e-11
-3.11215e-12
-2.93378e-11
-3.01964e-13
6.50433e-14
-4.68436e-13
-2.02991e-13
-1.33214e-11
4.171e-12
-7.9354e-13
-8.60298e-12
2.73739e-13
-3.68269e-13
-2.18491e-11
5.11689e-12
4.05512e-13
-3.33585e-13
-2.13491e-12
1.79809e-11
-3.22681e-13
5.16934e-14
3.56021e-14
-7.54304e-13
1.44019e-13
-1.67171e-11
2.07882e-13
4.93748e-13
9.88774e-14
-9.07083e-12
-9.52254e-12
8.35134e-12
-1.61643e-11
6.77065e-12
9.22248e-12
4.75531e-12
-6.81615e-12
-3.78899e-12
1.7155e-11
1.03858e-11
1.21603e-11
1.48969e-13
2.82789e-12
-2.79974e-12
-1.65713e-11
-1.44661e-13
5.78645e-12
-3.05261e-12
-5.30502e-12
0
9.83391e-12
1.48964e-13
1.48847e-13
-1.07575e-11
1.23525e-11
1.44573e-13
3.90359e-12
-2.47073e-12
8.69534e-12
2.38194e-12
4.46931e-13
1.32843e-13
-1.9236e-14
-9.41739e-12
2.28821e-11
2.91445e-13
8.54268e-12
6.52896e-13
-1.35567e-11
1.49523e-11
7.90714e-12
-1.07343e-13
5.95523e-13
-1.42215e-11
-1.89697e-11
1.86745e-12
-3.10935e-11
1.35847e-11
5.89984e-11
-1.38954e-11
-3.44416e-13
5.10861e-14
-3.6017e-13
-1.73963e-12
-2.55522e-13
-7.9292e-12
-1.18308e-13
-4.5877e-13
2.71304e-11
-1.40793e-11
9.69821e-14
-8.65568e-12
8.54293e-13
4.29621e-11
1.44373e-11
-1.1085e-11
-7.21086e-14
-2.13059e-13
2.1889e-12
-1.92599e-13
-6.78874e-12
9.0944e-12
3.58118e-13
1.71757e-12
-5.26016e-13
1.12301e-11
-1.14005e-13
8.1649e-13
-1.66098e-11
-1.43186e-11
4.98135e-12
3.66976e-13
-1.05039e-11
8.98649e-13
-7.57841e-13
6.99288e-12
0
-8.92979e-13
7.07152e-12
3.77732e-12
1.57559e-11
-1.59005e-12
8.57157e-12
1.35541e-11
2.8284e-12
-1.49011e-13
-1.19217e-12
-3.27579e-12
3.24291e-12
1.45375e-13
1.44649e-13
-1.3453e-11
2.90812e-13
4.27549e-12
7.44577e-13
1.08789e-11
7.12608e-12
-2.78881e-13
-6.40133e-12
-3.36864e-13
-6.33555e-12
-4.22517e-12
2.41001e-12
-2.21007e-12
1.726e-11
1.36517e-13
1.67641e-11
0
-1.81883e-12
-1.99312e-12
5.31616e-12
-3.2681e-11
7.79155e-12
4.60801e-12
-3.50378e-11
-1.0264e-11
2.59671e-13
1.12664e-13
0
1.74876e-11
1.75303e-13
-7.83052e-12
7.28252e-13
5.89879e-13
-2.30155e-13
6.33173e-12
-2.82535e-13
-7.85911e-13
5.77452e-12
5.38283e-13
-2.02585e-13
1.59053e-13
5.53689e-14
3.40453e-11
-8.54811e-13
2.26604e-12
3.17633e-13
-7.10901e-12
1.87054e-12
1.46365e-12
1.34613e-11
-6.93632e-14
2.5833e-11
-2.61386e-12
6.10573e-12
1.0623e-11
-1.76167e-11
-1.12342e-11
-1.28147e-12
-1.8942e-13
-9.26929e-12
0
-7.74141e-12
-6.18986e-12
-3.0524e-12
1.09919e-11
5.35127e-12
1.88953e-12
-1.47378e-13
-1.26572e-11
-1.34159e-11
0
-9.24008e-12
2.95237e-12
7.2858e-13
-2.46611e-12
2.75642e-12
-1.45758e-13
2.65778e-12
0
8.50049e-12
7.5226e-12
-6.46995e-12
-1.67621e-13
1.58669e-13
-6.08728e-13
5.41928e-13
-8.86462e-13
-1.15733e-11
-4.28919e-13
8.49809e-12
9.08258e-14
2.09031e-11
-2.16379e-12
-3.10267e-12
-7.1117e-14
1.92839e-11
1.11364e-12
1.68285e-11
2.11389e-12
-1.56816e-13
3.04318e-12
-2.05872e-11
-1.73889e-11
-2.32619e-13
9.27988e-12
-1.45071e-13
3.76895e-13
-2.11706e-13
1.92259e-11
-6.4902e-13
-2.08206e-11
-1.26283e-14
3.08413e-11
-2.05218e-11
-1.74619e-11
1.67681e-13
2.3892e-13
5.52848e-13
-1.93756e-14
2.61605e-12
1.10662e-11
-2.32942e-11
8.67484e-13
6.35898e-13
2.35695e-11
9.95187e-14
-1.9428e-13
-1.40627e-11
-5.44647e-12
-2.12921e-11
8.28343e-12
-1.38451e-12
-1.69399e-11
-2.52335e-13
-1.78784e-12
-5.96477e-13
4.17207e-12
-4.28032e-12
1.1656e-12
2.90097e-13
-3.77123e-12
2.91388e-13
3.68979e-12
5.06722e-12
-1.47682e-11
2.98535e-13
1.94048e-12
0
2.78901e-12
-2.92729e-12
-2.92744e-13
-4.40469e-13
-3.26073e-12
-3.13456e-12
1.34332e-12
1.5253e-13
1.99666e-11
-1.00812e-12
1.70001e-11
6.05254e-12
-1.12482e-12
3.22412e-13
-7.08143e-12
-4.52229e-12
1.02744e-11
-6.7145e-12
-2.08625e-11
-7.60104e-14
-2.21059e-11
-6.09808e-12
4.37756e-12
2.23981e-13
1.14766e-12
-8.74618e-12
8.96542e-12
-1.23629e-12
2.06026e-11
3.35356e-11
1.24829e-11
-3.78407e-14
6.61367e-12
-4.28896e-11
-6.26861e-13
-1.40654e-11
7.59485e-14
6.86161e-13
2.23575e-11
-4.64858e-11
1.39895e-11
2.38359e-13
5.47154e-13
2.77894e-13
5.92635e-11
3.54814e-13
-2.10485e-13
-7.31173e-12
8.6446e-14
7.35375e-13
1.93205e-11
5.25458e-14
6.48767e-12
1.95405e-11
-1.93329e-11
-1.49329e-11
0
-5.56009e-12
-1.45574e-13
8.19469e-13
-4.31376e-12
-6.58676e-14
1.41777e-11
-3.13377e-12
1.03725e-12
1.59987e-11
-3.366e-12
-1.46347e-13
-3.52247e-12
2.96337e-13
3.2837e-12
0
0
-2.98629e-12
-1.33944e-11
-1.4822e-13
4.44214e-12
0
9.78356e-12
4.465e-13
3.13541e-12
-1.49211e-13
-1.76173e-13
5.68657e-13
-9.60649e-12
-2.53569e-13
-3.99657e-12
-1.08985e-12
2.06413e-11
1.29136e-11
4.75583e-12
7.22845e-12
-7.02693e-12
8.96191e-13
-1.39862e-13
8.83216e-12
-8.68259e-12
1.63299e-11
8.52728e-12
-1.77033e-11
-4.53552e-12
1.54173e-13
-1.38175e-13
5.16217e-13
-1.48393e-12
1.56383e-11
-7.1834e-12
-5.37665e-12
1.39126e-11
-3.85472e-11
-1.60426e-11
8.03424e-12
-2.72656e-13
-1.65801e-11
1.04722e-11
1.27325e-11
-3.08544e-14
1.19074e-11
1.67386e-12
-3.46459e-11
5.25583e-12
-8.5994e-12
-9.16892e-12
-9.86687e-14
2.4507e-12
-1.81526e-11
-8.61031e-12
6.19718e-13
5.75312e-14
0
3.91583e-12
9.56713e-12
-9.33623e-12
2.01739e-13
-7.05255e-12
-1.10693e-13
7.72435e-13
9.3988e-12
0
-1.01178e-11
0
1.48054e-13
-2.07273e-12
0
2.97592e-13
1.04504e-12
8.50624e-12
6.99765e-12
1.5335e-11
2.12508e-11
3.26354e-12
2.5208e-12
4.4488e-12
2.8186e-12
-1.02535e-11
-2.6798e-12
-6.84789e-12
7.35282e-12
2.45791e-11
9.29609e-12
1.73641e-13
-5.3207e-12
-3.92394e-13
-7.37809e-12
-1.71488e-11
1.46681e-13
7.04565e-12
-9.66528e-14
7.31398e-14
-2.17285e-11
-9.1789e-12
1.08951e-11
-2.47837e-11
5.41817e-12
8.53973e-12
2.97139e-13
6.81817e-12
1.83923e-13
-2.96371e-13
2.08439e-11
2.18608e-11
-5.48044e-12
-2.72186e-11
-2.4903e-11
3.94663e-11
-5.74103e-13
2.07353e-12
-9.62054e-14
1.45398e-11
-9.79177e-13
-1.75387e-11
5.70219e-12
1.71595e-11
1.46522e-11
2.75341e-11
1.44776e-11
4.30914e-13
6.41068e-14
-1.51752e-11
2.94482e-13
-1.63781e-11
-6.18104e-12
-2.73104e-13
-2.44719e-11
-3.65958e-11
-1.4694e-11
-9.06511e-12
1.53729e-12
5.17333e-13
-2.07821e-11
3.23233e-11
-3.03549e-13
-2.12322e-11
2.41723e-11
7.12054e-13
-1.76214e-11
1.3732e-12
-3.92933e-13
-1.97327e-11
2.93865e-11
-1.87872e-11
2.95038e-11
3.10483e-11
4.1043e-11
-9.6167e-13
1.85611e-11
-1.96848e-13
-1.64249e-12
4.25808e-12
-1.50686e-11
-1.17051e-11
-2.52473e-12
-3.36339e-11
1.82366e-11
2.43735e-13
-3.00538e-13
-1.68896e-12
-1.48846e-13
1.48832e-13
-1.33709e-12
2.96654e-12
1.52716e-11
-8.89643e-13
1.46841e-11
2.37725e-12
-2.08395e-12
0
4.45413e-13
9.19933e-12
-7.40849e-12
0
7.99513e-12
1.82024e-11
-1.02132e-11
-1.54169e-11
-1.95867e-11
-1.69242e-11
-2.72622e-13
1.18616e-13
1.19276e-11
-2.56406e-12
5.21324e-12
2.06615e-12
3.00989e-12
-1.24351e-11
-7.51903e-12
-8.34998e-12
-6.56493e-13
-8.97429e-12
9.01314e-12
4.06112e-13
-2.218e-11
-6.81523e-12
1.13174e-11
-5.95677e-15
1.22458e-11
5.5566e-13
1.88255e-13
-1.6179e-13
1.63856e-11
3.21064e-14
2.05782e-11
-2.67361e-13
2.12499e-11
-4.18303e-13
6.20223e-13
4.07972e-14
-9.06067e-12
2.61968e-13
-1.70623e-11
1.24962e-11
4.33984e-12
-2.54197e-12
-3.97588e-11
-1.29457e-12
8.46638e-12
8.05626e-12
7.35955e-14
9.6127e-12
9.01214e-14
-1.13517e-11
3.74144e-12
2.57953e-12
1.87897e-11
8.82313e-13
-1.30431e-13
1.52897e-14
1.78122e-11
-3.24577e-12
-3.92242e-13
-5.42842e-12
-1.39257e-11
9.76508e-13
-8.67418e-13
2.92733e-13
-1.12097e-11
2.78543e-13
-2.24377e-15
-1.31759e-11
3.49208e-13
1.49403e-11
-1.58743e-11
-1.47092e-12
1.39596e-12
1.53102e-13
-3.57649e-13
2.71969e-13
-1.80148e-11
2.59177e-12
-4.18362e-14
2.73883e-12
1.53655e-11
-3.02488e-12
9.21903e-13
-4.43081e-12
-1.55116e-11
1.46603e-12
-8.90671e-12
0
-3.85345e-12
-6.95612e-12
1.06594e-11
9.02647e-12
2.95997e-13
8.74092e-12
1.63197e-12
1.18771e-12
-1.18562e-12
-4.44367e-13
0
2.66282e-12
0
1.47916e-13
-1.47938e-13
-1.48023e-13
-5.92489e-13
-5.92785e-13
3.8287e-12
-4.6892e-13
1.3001e-13
2.76289e-12
-3.59929e-14
9.31307e-12
8.13333e-14
-6.9958e-12
-6.90278e-13
-5.91183e-13
-7.29031e-12
7.7957e-12
-8.19076e-14
-2.66734e-12
-1.02982e-11
-1.132e-13
9.80391e-14
-4.53839e-14
3.65878e-13
-4.41352e-14
-5.18076e-12
-1.02907e-11
4.24935e-15
-1.3125e-14
6.27557e-13
-9.40597e-12
-1.55384e-13
6.54046e-12
-9.38535e-12
-1.29971e-13
7.58114e-12
-7.13677e-12
-9.13369e-12
2.92734e-12
1.03432e-11
3.75144e-13
-6.48423e-12
1.26889e-13
-6.22501e-14
1.20187e-13
7.71371e-14
1.03444e-11
-1.10739e-11
-8.53407e-14
-1.17123e-12
5.43187e-14
6.71224e-12
5.79756e-13
9.44227e-12
9.624e-14
7.35356e-12
-4.72187e-13
8.88521e-12
-6.63063e-15
-8.35883e-14
-1.72923e-13
-4.14249e-12
-3.71478e-13
-8.48648e-14
7.33331e-14
-7.37539e-14
-6.32003e-14
1.16095e-11
8.08334e-12
6.28894e-13
-6.07288e-13
4.65739e-12
2.47145e-13
2.64394e-13
5.04796e-13
-7.11716e-12
6.68347e-15
-4.11086e-13
-3.10135e-15
-8.27464e-14
1.05121e-13
1.1406e-11
-4.5025e-14
-2.12049e-13
-3.13801e-13
-1.48188e-13
-1.48109e-13
-7.40029e-13
-8.13594e-12
1.47915e-13
1.47906e-13
-1.06504e-11
-4.43998e-13
0
-2.96396e-13
0
1.48005e-13
-7.54528e-12
7.09951e-12
-2.95791e-13
-1.47896e-13
5.02894e-12
7.39759e-12
5.92028e-13
1.48051e-13
-7.15862e-12
-2.83046e-14
-6.79711e-12
-1.40252e-13
-2.03783e-13
-2.2053e-13
1.10949e-13
3.94117e-13
-6.36037e-12
3.14069e-13
-7.17804e-12
-2.90504e-14
3.76758e-13
-1.61198e-11
-6.38227e-12
-3.48187e-12
-8.54768e-12
-9.22809e-12
2.35728e-13
-1.05533e-14
7.75829e-12
-7.32235e-12
-7.67309e-12
-9.33983e-14
9.2152e-12
1.30603e-11
-4.48071e-13
6.07617e-12
7.03533e-12
1.27934e-12
7.15337e-12
2.6235e-14
-1.0626e-14
9.10142e-12
6.777e-12
3.6074e-12
3.29827e-12
1.02462e-11
6.35221e-14
-5.16008e-13
-6.66943e-13
-2.32551e-12
8.46192e-13
1.89166e-13
-9.38639e-12
-2.21147e-11
-9.08959e-12
1.13625e-12
-7.31563e-12
-1.0021e-12
-1.90803e-13
1.20402e-13
-4.50893e-14
-9.40372e-14
2.86887e-13
-4.94934e-13
-3.42318e-13
-1.16166e-12
2.6744e-14
7.66455e-12
5.3617e-14
3.14857e-13
-1.63251e-12
-9.52382e-15
1.02508e-11
1.04452e-11
9.82905e-12
-1.88277e-13
7.41798e-12
-8.24773e-14
5.22382e-14
-2.81705e-14
-7.51996e-13
9.28943e-14
-9.48067e-13
-8.16142e-12
-3.82135e-13
-8.99493e-12
1.13915e-11
-7.27698e-12
-1.48043e-13
9.17579e-12
7.9887e-12
-2.95797e-13
-1.00564e-11
-8.4296e-12
-4.437e-13
-8.87647e-12
1.13962e-11
0
-1.68686e-11
-9.76441e-12
7.3958e-13
0
5.91557e-13
-8.42974e-12
0
5.91681e-13
6.9536e-12
2.95944e-13
-1.45775e-11
-7.85246e-12
1.99395e-13
-6.85707e-12
-6.69387e-12
-6.7909e-12
-2.0228e-13
9.65085e-12
1.83379e-13
3.89282e-13
8.34419e-12
9.75895e-12
-5.91597e-13
-7.33469e-13
-9.82686e-12
-2.17856e-12
2.01796e-14
2.51051e-13
-7.02028e-12
5.40958e-13
-1.54731e-12
8.18872e-12
-3.54495e-13
6.64204e-12
-2.0731e-12
7.07551e-12
-2.56277e-13
-1.72747e-11
6.5665e-12
3.30999e-12
1.08693e-12
8.94422e-12
-5.15926e-14
-1.81994e-14
9.89498e-12
1.08671e-11
-2.12533e-14
-1.38573e-13
2.89211e-13
6.23061e-12
9.41741e-12
1.91221e-13
8.26605e-12
2.66398e-13
8.58772e-12
-1.15659e-13
-4.25174e-13
8.06345e-12
1.96157e-12
-3.4852e-12
-3.41585e-13
-9.03164e-12
-2.53198e-14
-3.58482e-14
-9.85034e-12
-1.35434e-12
4.78399e-14
-8.02125e-13
-3.84183e-13
-6.7077e-12
2.39325e-13
-1.65627e-13
-7.97013e-12
1.15723e-13
6.37803e-13
8.33607e-14
2.28796e-13
2.2006e-13
-1.67669e-11
-2.48501e-15
-1.78021e-13
2.46167e-13
-2.05921e-13
-9.07357e-14
9.39897e-12
1.11905e-12
2.9318e-12
4.94726e-13
6.09135e-13
1.97012e-14
0
4.43819e-13
1.4791e-13
2.95779e-13
0
0
2.80996e-12
0
7.54523e-12
2.95943e-13
-7.02651e-12
-6.65729e-13
7.39659e-14
-3.69593e-13
6.50666e-12
-5.02791e-12
-5.17485e-13
-7.39032e-14
-2.2181e-13
7.37721e-14
-6.87691e-12
-1.40432e-12
7.39413e-14
-7.46808e-12
-8.87269e-13
-9.16894e-12
-7.61653e-12
-7.3885e-14
7.42186e-14
2.22501e-13
2.21045e-13
5.16808e-13
-2.95708e-13
1.48213e-13
-7.83822e-12
5.17633e-12
4.43892e-13
-1.47773e-13