/*--------------------------------*- C++ -*----------------------------------*\
  =========                 |
  \\      /  F ield         | OpenFOAM: The Open Source CFD Toolbox
   \\    /   O peration     | Website:  https://openfoam.org
    \\  /    A nd           | Version:  10
     \\/     M anipulation  |
\*---------------------------------------------------------------------------*/
FoamFile
{
    format      ascii;
    class       volScalarField;
    location    "0.4";
    object      gradTz;
}
// * * * * * * * * * * * * * * * * * * * * * * * * * * * * * * * * * * * * * //

dimensions      [0 -1 0 1 0 0 0];

internalField   nonuniform List<scalar> 
46825
(
1.49086e-13
0
-1.48932e-13
1.18973e-11
4.45697e-13
-8.76539e-12
1.48719e-12
1.54895e-11
2.98155e-13
1.01388e-11
5.96213e-13
-1.4893e-13
1.48581e-13
-1.21379e-11
7.82522e-12
1.47648e-13
-4.44079e-13
1.26298e-11
-2.97867e-13
-7.45312e-13
-1.01255e-11
0
-2.20095e-11
-1.30238e-11
-2.90893e-13
-5.81788e-13
-1.46336e-13
-8.12447e-12
-7.42861e-13
-5.95649e-13
-4.46072e-13
0
-4.68259e-12
1.52606e-11
3.27748e-12
2.56499e-12
-4.31903e-13
-1.78523e-11
0
-5.94772e-13
9.65578e-12
2.95287e-13
-8.00006e-12
-2.8502e-13
3.3765e-12
-3.51717e-12
-1.42508e-13
-1.67272e-11
1.62405e-12
-1.18838e-12
-9.65692e-12
1.4767e-13
-1.89139e-11
0
3.51767e-12
-1.46334e-11
9.40745e-12
0
1.47664e-13
2.97125e-13
-1.04116e-12
1.48079e-13
-1.18611e-11
-1.28211e-11
5.13193e-12
-1.85318e-12
5.76213e-12
3.51431e-12
4.44217e-13
-8.92385e-13
-4.46889e-13
0
-4.43494e-13
-1.3033e-11
-6.98453e-12
-2.91023e-13
-2.92875e-13
1.34528e-11
-1.62026e-11
2.97917e-13
-6.85861e-12
-1.48984e-13
9.3648e-12
-1.48082e-13
-1.47687e-12
9.89506e-12
4.44253e-13
-1.14461e-11
0
5.96405e-13
0
2.98193e-13
1.48959e-13
7.43695e-13
-1.04007e-12
1.48584e-13
5.94981e-13
1.19174e-12
0
-1.02897e-11
1.35769e-11
-1.49346e-13
1.20962e-11
1.29835e-11
-2.98375e-13
-8.65282e-12
1.61175e-11
6.1229e-12
-1.49359e-13
1.49216e-13
-1.26919e-11
1.12218e-13
2.48438e-15
1.00423e-12
3.00196e-12
1.70909e-12
1.44593e-14
1.51989e-11
-3.74075e-13
-7.46658e-13
-5.52367e-12
6.82367e-14
1.78783e-12
-1.36421e-11
2.95805e-13
-1.86279e-11
2.95934e-13
7.42691e-12
-4.67145e-13
-2.98595e-13
1.25323e-11
3.91009e-12
0
4.06963e-11
2.90624e-13
1.16147e-12
-1.456e-12
-1.0606e-11
-2.93506e-12
1.23833e-11
1.01427e-11
6.84462e-12
2.48452e-11
-8.71846e-13
2.87475e-13
-2.87087e-13
1.44174e-12
-2.58032e-11
-4.36411e-13
-1.70038e-11
-9.99458e-12
7.47731e-12
-6.50506e-12
1.97456e-11
-6.89016e-12
-1.46204e-11
2.88005e-13
0
7.48602e-13
-1.49166e-13
-8.95413e-13
-2.08583e-11
-1.1249e-11
-1.22357e-11
5.76776e-13
-2.01606e-12
-5.78409e-12
1.82082e-11
3.57603e-12
-4.47681e-13
-4.4803e-13
1.64469e-12
-7.13355e-12
-1.14982e-11
8.79877e-13
-2.28596e-11
-2.02645e-11
1.42056e-11
8.79543e-12
8.96026e-12
1.4936e-13
-1.12246e-13
3.98438e-12
3.97475e-12
5.39963e-13
-4.01963e-12
-5.05585e-12
-5.68221e-13
3.66683e-12
8.96163e-13
0
-4.48054e-13
1.49332e-13
8.9537e-13
1.49176e-13
1.08901e-11
-1.49238e-13
4.48038e-13
0
0
4.4749e-13
-1.10976e-11
9.64307e-13
-7.8731e-14
-2.05234e-13
9.19299e-12
9.04585e-12
-9.64248e-12
1.08948e-12
-9.54823e-12
-1.91643e-11
0
2.98791e-13
1.37574e-11
3.59704e-12
-4.49882e-12
-2.63458e-11
-2.56864e-11
0
-2.82036e-13
2.35694e-13
-2.98736e-13
-1.30168e-11
-1.81629e-11
-1.21767e-12
1.3112e-11
-1.03199e-11
3.02548e-13
-3.00317e-13
-1.14413e-11
3.72457e-12
-1.34552e-11
7.26493e-12
1.73433e-06
1.5263e-06
1.55283e-06
1.42303e-06
4.10981e-08
1.20471e-12
2.69136e-13
-9.77858e-14
-2.997e-13
-3.04372e-11
1.5256e-06
-1.15378e-06
-1.18635e-06
-9.68003e-07
4.24113e-08
-2.1177e-12
-9.41897e-12
-9.83868e-12
1.97911e-11
2.4387e-12
1.55187e-06
-1.18558e-06
-1.22111e-06
-9.8902e-07
4.24699e-08
1.96848e-11
9.62754e-12
-7.65282e-14
-4.49007e-12
-9.10663e-12
1.46743e-06
-9.61694e-07
-9.88525e-07
-7.91592e-07
4.36334e-08
-7.84976e-12
1.02126e-13
2.46605e-13
1.49325e-12
-3.02761e-13
1.08391e-08
4.22134e-08
4.24143e-08
4.3665e-08
2.11962e-10
1.53339e-11
-1.60564e-12
6.67752e-12
2.98392e-13
2.58306e-11
1.80747e-12
-3.17622e-11
-1.30213e-11
1.63036e-11
1.47333e-11
2.99101e-13
-4.07616e-13
-4.47513e-13
-1.09762e-11
-1.16188e-13
-7.39009e-14
7.39205e-13
2.41267e-13
-3.92084e-13
8.48751e-12
1.84719e-13
1.08906e-11
-1.38392e-11
-9.19449e-14
-1.00665e-12
1.29283e-11
1.39826e-11
5.26527e-14
-4.04247e-12
1.29794e-13
1.11215e-11
1.48854e-13
1.26147e-11
2.97015e-13
-1.94244e-13
-7.10123e-11
-1.25769e-10
-1.08119e-10
-6.46813e-11
9.42035e-12
2.01845e-11
-2.13993e-13
-1.17896e-13
-2.29704e-12
1.25053e-09
-2.23735e-06
-2.32181e-06
-2.23133e-06
-2.31996e-06
-2.57515e-06
2.52758e-10
-9.98852e-12
-1.23502e-11
-8.01332e-11
-2.81803e-06
-225.176
-293.73
-294.364
-292.834
-0.168472
6.74041e-09
-2.2638e-11
7.15217e-14
-1.16582e-10
-2.30622e-06
-293.726
-406.787
-408.291
-404.487
-0.558695
-1.16069e-08
1.58636e-11
-1.00596e-11
-1.16391e-10
-2.26917e-06
-294.341
-408.275
-409.87
-405.893
-0.561188
-9.14268e-09
1.3965e-11
4.04808e-13
-1.01851e-10
-2.32256e-06
-291.818
-404.34
-405.882
-401.934
-0.556733
-1.65582e-08
-4.2425e-13
-2.44633e-13
-2.55993e-11
-2.56946e-06
-0.0686275
-0.557136
-0.561093
-0.556687
-0.0685566
5.39508e-09
-9.85237e-12
-9.37924e-12
2.96711e-13
2.41346e-10
1.02091e-08
-1.07325e-08
-9.27886e-09
-1.5812e-08
5.5136e-09
2.46863e-11
-1.23074e-11
-1.33927e-12
5.50399e-13
-1.00449e-11
1.97645e-13
7.08817e-12
-1.07695e-11
6.5485e-13
3.61245e-12
-1.81692e-13
8.63236e-12
0
1.4621e-12
1.05572e-11
2.00127e-13
-9.88498e-14
-9.16634e-12
-9.02196e-12
1.62885e-13
-1.13305e-12
2.97342e-13
3.07178e-11
2.96347e-13
2.18566e-11
6.63704e-10
1.2751e-09
1.2406e-09
1.26543e-09
-6.8696e-12
-2.04458e-11
5.98497e-14
2.53553e-13
2.67799e-12
4.75497e-09
-0.00110519
0.0111771
0.0113131
0.0110133
-0.000120496
1.25316e-09
1.1655e-11
-4.06017e-12
2.25998e-10
0.00551044
1.5472e-06
-1.10498e-11
3.23284e-13
1.28527e-09
0.0111828
4.78934e-06
2.34419e-11
9.99e-12
1.21636e-09
0.0112747
4.88896e-06
1.83778e-12
-9.24433e-12
1.29003e-09
0.0110119
4.54253e-06
-9.57731e-12
-2.38208e-14
-9.89652e-12
-0.000112009
-1.52175e-07
-8.12901e-12
-1.73235e-11
-8.88475e-13
1.41401e-09
2.7097e-06
4.83265e-06
4.90763e-06
4.53607e-06
-1.51529e-07
-2.44331e-11
2.5788e-13
4.4586e-13
1.92058e-11
-1.2285e-11
-3.38858e-13
6.78274e-13
9.01315e-13
2.09612e-13
-2.15446e-11
-9.33021e-12
9.51362e-12
-9.06856e-12
-9.68798e-12
3.74116e-12
-1.36343e-11
-1.34038e-11
-2.68864e-13
-2.3854e-11
-2.64599e-13
-2.03776e-11
0
1.46921e-11
-2.97272e-13
-2.11642e-11
2.80258e-11
3.14757e-10
2.91948e-10
3.03021e-10
-2.32208e-13
2.17319e-11
-6.03794e-14
-4.38562e-12
1.73358e-13
-3.44199e-09
0.000265282
0.000359436
0.000360374
0.000358601
-7.48058e-06
2.14821e-10
8.93649e-12
1.20137e-11
4.11485e-11
0.000163478
6.53453e-07
1.00067e-11
1.47211e-13
2.86712e-10
0.000359672
3.87269e-07
4.45373e-14
1.03476e-11
2.94243e-10
0.000360368
3.58204e-07
-1.37654e-11
-1.2177e-12
2.92215e-10
0.000358588
2.99161e-07
5.8795e-13
-4.48005e-13
2.86726e-11
-3.4728e-06
-9.58227e-09
2.49899e-12
9.33008e-12
-2.97733e-13
1.60453e-10
1.62019e-07
3.3966e-07
3.58287e-07
2.99126e-07
-1.17747e-08
-1.95266e-11
1.14842e-11
8.92018e-13
-4.46371e-13
2.3332e-11
-5.9833e-14
-2.00304e-11
-7.78321e-13
-1.98155e-13
3.05683e-12
-2.17749e-13
-8.77312e-12
1.48749e-13
2.5188e-11
-1.15804e-11
-2.90266e-13
4.0137e-13
-1.98407e-13
-5.52673e-13
-1.14127e-11
1.07692e-11
-1.48796e-13
-1.18336e-11
1.93557e-11
1.86813e-13
5.26822e-12
7.3142e-11
7.23265e-11
8.88237e-11
1.46144e-12
-1.99896e-11
3.70087e-13
-1.24472e-11
-7.28826e-14
-5.64496e-09
6.48236e-05
0.000120872
8.07761e-05
0.00012052
-2.90142e-06
6.52818e-11
4.20766e-13
9.2353e-13
-1.9019e-11
6.39638e-05
3.89832e-08
1.16217e-11
-9.47812e-12
6.99141e-11
0.000120928
6.23557e-08
-1.36875e-11
1.03508e-13
5.88497e-11
0.000121064
4.51937e-08
-1.16253e-11
1.03009e-11
8.41415e-11
0.00012047
-1.68035e-08
9.03396e-12
1.80341e-13
-9.11866e-12
-1.20543e-06
3.07687e-09
8.20674e-12
1.73867e-11
5.96655e-13
-6.21946e-12
2.36427e-08
3.8735e-08
5.01528e-08
4.06555e-08
-2.07912e-09
1.98748e-11
-4.14221e-13
1.48761e-13
-1.90869e-11
8.00152e-12
9.34545e-14
-1.59061e-11
-4.22259e-13
-5.44775e-13
1.24776e-11
9.96477e-12
-9.96885e-12
2.17283e-11
1.02326e-11
-1.51155e-11
1.23245e-11
1.07203e-11
2.56398e-13
2.61108e-11
5.08317e-13
9.24459e-12
-5.95465e-13
-1.38781e-11
-2.50313e-11
1.63999e-12
8.78598e-13
2.37129e-11
3.51625e-12
9.35626e-12
-1.40564e-13
-1.49282e-12
-7.95514e-13
-1.03845e-11
-2.67553e-13
1.46012e-09
3.20725e-05
0.000121074
4.066e-05
8.05995e-05
-3.14659e-06
2.31643e-11
4.14233e-13
-2.33761e-12
7.31978e-12
8.16564e-07
-5.20618e-09
-3.33228e-13
-9.32691e-14
3.45408e-11
0.000121034
-1.60454e-08
-7.74636e-14
8.96098e-12
4.24811e-11
4.06629e-05
-1.7815e-08
-1.00163e-11
5.74959e-13
1.69557e-11
0.000120657
-3.78155e-07
-1.59166e-11
1.09987e-13
-2.2526e-11
-3.98348e-08
2.28216e-08
-1.04507e-12
5.16109e-14
-5.97294e-13
1.33241e-11
-1.41232e-08
6.2694e-09
-1.28841e-08
-5.18293e-09
-7.09981e-10
0
1.78398e-13
2.97672e-13
1.74184e-13
-3.59677e-12
-1.88021e-13
1.3343e-11
4.31026e-13
-4.29713e-13
-6.8042e-12
1.00502e-11
-1.48862e-13
-2.97761e-13
-1.5518e-11
3.67112e-14
7.58535e-14
9.85915e-12
-1.29454e-13
6.62792e-13
1.18087e-11
-1.09333e-11
1.48922e-13
-4.38883e-13
5.66327e-12
-1.73688e-12
-7.90734e-12
-1.38478e-10
-1.11055e-10
-1.25144e-10
-2.60375e-13
2.09035e-12
2.49479e-13
1.24719e-11
-1.92967e-11
7.99703e-10
-6.5614e-05
-3.87503e-05
-7.91001e-05
1.34031e-06
-3.22804e-06
-9.08598e-11
-8.54514e-13
8.65659e-12
7.61238e-12
-6.68211e-05
-1.50894e-07
-8.14889e-14
9.8255e-12
-1.31432e-10
-3.875e-05
-3.31641e-07
-5.7289e-13
-1.23523e-13
-1.544e-10
-3.88738e-05
-3.39441e-07
9.47492e-13
-1.19381e-11
-1.27467e-10
-3.85991e-05
-1.60482e-08
7.24389e-14
1.40123e-13
-2.00108e-13
9.25674e-07
-7.36564e-08
-6.82162e-14
-5.43377e-14
-1.85174e-11
-1.04995e-10
-1.42155e-07
-3.40035e-07
-3.38657e-07
-2.90767e-07
7.61812e-09
-3.04254e-13
-6.53955e-13
-1.48893e-13
1.01322e-11
3.19041e-12
-1.34782e-11
1.44051e-11
1.52555e-12
8.12183e-13
-1.54588e-11
-4.09242e-13
1.48915e-13
-2.97844e-12
-1.42866e-11
-7.56338e-14
-1.19788e-11
-1.04614e-11
2.66501e-14
1.13026e-12
-5.39256e-13
-2.81228e-13
5.95841e-13
1.23552e-11
3.27886e-12
-1.23309e-12
8.06411e-11
1.1094e-10
1.56864e-10
1.78771e-11
-1.76552e-12
-1.4929e-12
1.08087e-12
1.05486e-11
1.89635e-11
5.49365e-10
-0.00365456
-0.0084692
-0.0086021
-0.00841635
5.35099e-05
-2.34104e-10
3.85246e-13
-8.59827e-12
6.39117e-11
-0.00371803
-1.86872e-06
9.71445e-12
-9.24184e-14
1.11515e-10
-0.0084691
-3.01723e-06
-1.86671e-13
-9.55577e-12
1.68302e-10
-0.00860189
-3.06879e-06
9.4937e-12
-9.95293e-12
1.23075e-11
-0.00833579
-2.7989e-06
1.56743e-11
3.85797e-13
2.59075e-12
5.82004e-05
7.12505e-08
2.33089e-13
-2.8602e-14
1.94128e-11
-2.62288e-10
-1.86952e-06
-3.02478e-06
-3.0658e-06
-2.83846e-06
7.41673e-08
-3.01161e-13
9.20532e-13
0
2.60776e-13
-9.7222e-12
3.9711e-13
3.42424e-13
-8.95725e-12
-1.65689e-13
-7.18894e-13
-1.02693e-11
7.44784e-13
-2.97885e-13
6.46106e-13
-2.85292e-14
-4.4409e-13
5.10227e-12
1.01108e-11
1.35768e-13
1.06237e-11
-9.83693e-12
-1.63864e-12
-1.08569e-12
-2.56356e-11
-1.66579e-13
1.84917e-11
-2.11838e-11
1.67856e-11
-1.87992e-11
2.0831e-13
1.79157e-12
-5.33832e-13
-2.40072e-13
-2.5811e-11
2.28746e-10
9.30567e-06
7.38055e-06
7.42504e-06
7.46028e-06
8.33566e-06
1.47672e-10
4.66213e-13
-9.53347e-12
-2.08374e-11
9.17113e-06
-8.07326e-09
-1.08566e-11
1.25215e-11
-3.82452e-12
7.3834e-06
-9.71065e-09
1.84973e-13
3.91033e-13
0
7.45527e-06
-9.56262e-09
-6.99879e-13
1.14443e-11
-5.8742e-13
7.51873e-06
-1.00508e-08
-1.11872e-11
1.42654e-11
1.77669e-13
8.42582e-06
3.33586e-09
-9.76868e-12
2.13937e-13
-1.19412e-12
1.31826e-10
-8.07674e-09
-9.74879e-09
-9.59607e-09
-1.00904e-08
3.34038e-09
1.89702e-11
1.65746e-13
2.97907e-13
9.89225e-13
2.02346e-13
1.32699e-11
7.94407e-13
-1.3867e-12
-1.07001e-12
1.58288e-11
-1.27614e-11
1.48964e-13
-9.68133e-12
-8.52855e-12
1.911e-13
-8.05891e-14
-9.3527e-12
8.88126e-12
-1.47988e-11
3.33837e-13
-1.31901e-13
0
-1.25052e-11
2.23603e-11
1.44116e-12
-2.45908e-11
2.08002e-11
-2.02306e-11
1.87244e-11
2.66945e-13
-2.59816e-11
-6.66534e-14
-3.96239e-14
2.5807e-11
-6.11983e-13
-5.79988e-13
1.17621e-12
-8.24601e-12
3.81689e-11
-2.77459e-13
3.16406e-12
-6.68424e-14
-5.97442e-13
2.01988e-11
-4.52444e-11
1.55591e-12
-9.48348e-12
-3.82294e-14
0
-2.3523e-11
-4.11388e-13
-5.19407e-13
-1.38156e-13
5.86377e-13
-4.06408e-11
-1.02469e-13
1.45675e-13
9.37981e-12
2.04794e-11
2.34885e-12
1.4158e-12
1.00368e-11
-2.92261e-13
-2.4156e-13
7.50758e-13
-9.05959e-12
-1.41657e-11
9.79543e-12
8.95918e-13
-8.81419e-12
9.95121e-13
2.93572e-11
2.78463e-11
2.44215e-11
1.87353e-11
-1.80773e-11
-1.43596e-12
9.68144e-12
8.42908e-14
-1.0647e-11
2.55742e-13
9.6867e-12
1.78555e-11
5.75922e-14
1.777e-12
4.15465e-13
-1.04268e-12
-5.95738e-13
7.37294e-14
-1.64726e-14
-4.42624e-13
-2.44018e-11
-1.01727e-11
7.90516e-13
-1.22488e-12
2.30389e-11
1.19154e-12
7.90513e-13
2.08718e-11
-2.45384e-13
-1.6976e-11
2.9284e-13
8.79252e-13
-2.92454e-13
-1.55664e-13
2.41934e-11
1.32066e-11
2.26718e-13
1.65731e-13
-7.53049e-11
6.56081e-13
-2.40958e-12
1.18163e-12
-5.88804e-13
1.41473e-12
1.65027e-11
1.02956e-13
-4.41149e-14
-1.17076e-12
1.03692e-10
-2.1114e-11
1.97945e-11
-2.39349e-11
2.92826e-13
-3.56861e-11
-2.89047e-13
2.2681e-13
-5.86474e-14
-2.93069e-13
-1.77244e-12
2.53929e-11
1.1856e-14
1.97905e-13
-2.04713e-11
-1.1776e-12
1.30747e-12
2.16407e-11
-1.48243e-11
-3.16143e-13
-2.07725e-12
1.99551e-11
9.8476e-12
1.1038e-11
2.09071e-12
-3.47057e-12
-1.33312e-12
3.0163e-13
-2.11968e-13
-4.25563e-11
-1.86632e-11
-3.01411e-13
-2.34658e-13
0
-9.08682e-13
1.00049e-13
3.83381e-13
-6.07738e-13
-4.34563e-13
-1.2086e-11
1.14852e-11
1.54934e-11
5.95761e-13
-4.02105e-12
2.19652e-11
3.86963e-13
6.39261e-13
2.24681e-11
-8.87689e-12
8.91533e-12
6.18137e-13
3.81544e-14
1.17656e-11
2.71297e-13
-2.11696e-11
-2.9957e-13
2.25397e-11
-1.84523e-11
5.86273e-13
-2.92488e-13
7.9387e-13
1.19482e-12
-3.66681e-13
-1.41763e-11
-1.24499e-12
6.12329e-13
-4.45416e-13
-1.15453e-13
0
-7.06702e-12
1.12524e-13
-5.44987e-12
-2.5442e-13
3.3033e-12
5.85425e-13
2.15574e-12
3.83412e-11
-5.55939e-14
7.76087e-14
5.85745e-13
-1.33571e-12
8.58627e-14
-3.79568e-14
1.45558e-11
-5.86243e-13
5.9099e-13
-2.55551e-11
-9.93395e-14
3.14381e-13
0
5.47693e-11
-1.46522e-12
-1.00598e-11
2.77423e-13
-6.58623e-13
2.94472e-13
-1.9906e-11
2.30246e-11
-2.00079e-11
-2.38955e-12
-1.30939e-12
2.76921e-13
2.90861e-13
4.85596e-13
1.81183e-11
1.73423e-11
0
-8.48727e-12
-1.05739e-11
-8.65675e-14
1.10121e-11
-1.20326e-11
-9.93042e-12
5.41553e-12
1.6274e-13
-9.7214e-13
9.15855e-14
0
2.97866e-13
-2.74444e-13
-6.31573e-14
4.23089e-13
8.74621e-12
-9.92458e-14
-2.4668e-12
-1.01547e-11
-1.29964e-11
9.53202e-12
9.79637e-12
5.96263e-13
5.31844e-13
-5.85387e-13
1.8742e-11
-8.79256e-13
8.77348e-13
-4.6146e-14
-1.31412e-11
-2.23003e-11
-1.00944e-11
2.38416e-11
1.83689e-12
-3.96062e-13
-3.90478e-11
1.6547e-11
-5.88888e-13
4.3606e-11
-1.89325e-11
1.34484e-13
-1.96338e-13
-2.25369e-11
2.38139e-12
1.20027e-12
-8.85352e-12
1.02816e-11
-2.45983e-11
-4.85289e-11
-5.47117e-13
3.02934e-13
8.59717e-14
5.8615e-13
-5.90961e-13
1.8292e-13
-3.91453e-13
1.01419e-11
5.84888e-13
-5.7711e-11
-2.89918e-13
-1.02677e-11
1.93812e-13
2.39155e-11
4.41401e-11
-2.70142e-11
-1.63411e-13
-1.3523e-12
1.34394e-11
-2.61684e-11
-2.6532e-11
4.33944e-13
-7.05584e-13
2.83036e-11
-1.75171e-11
0
-2.57032e-13
7.44655e-13
1.71882e-11
9.12924e-13
-1.49378e-13
-1.3097e-11
-1.34948e-13
1.28848e-11
-1.09159e-11
1.12765e-11
-5.95741e-13
3.87245e-12
6.53136e-13
5.80618e-13
-1.22043e-11
-1.31076e-11
2.94735e-13
-9.28483e-12
-2.69955e-13
4.3155e-13
-1.13202e-11
1.70546e-13
-5.96164e-13
1.571e-13
1.81443e-11
2.04984e-12
2.4325e-11
2.92441e-13
1.94733e-13
1.22416e-11
8.37901e-15
1.39227e-11
-2.35542e-11
2.6321e-11
-3.74463e-11
5.54019e-13
0
5.88424e-13
3.58259e-12
1.79151e-11
-2.53475e-13
-2.91689e-12
2.34114e-11
5.36725e-11
-1.72687e-11
-1.18178e-13
9.53133e-14
2.25473e-11
4.53678e-13
-8.859e-13
3.08283e-14
-1.46765e-11
5.86139e-13
5.84482e-11
8.66044e-13
-1.97985e-13
2.49878e-13
-5.84861e-13
-2.94186e-12
-7.53372e-13
-3.63656e-14
-4.35344e-13
-2.38744e-11
-1.70961e-12
5.67891e-11
-8.75589e-12
1.04496e-11
-5.07571e-12
2.71768e-11
2.69122e-11
-5.82928e-13
3.76185e-13
-1.03478e-11
2.67026e-11
6.02478e-13
-6.83196e-13
2.97895e-13
-3.20139e-14
-2.1175e-13
1.18257e-11
-1.88642e-13
-1.44903e-11
1.58716e-11
1.13861e-11
8.24206e-14
-7.44742e-13
-1.48961e-13
-1.32544e-13
-6.36765e-14
-1.0524e-12
-6.21231e-14
-1.23675e-13
2.25402e-12
8.3909e-15
-5.40216e-13
-1.0131e-11
-7.4122e-13
2.98052e-13
2.11984e-11
-1.75946e-11
-2.26273e-11
-2.41174e-11
1.17351e-12
-8.82634e-13
2.50723e-11
1.85051e-11
1.44732e-12
-5.8035e-13
2.43961e-12
5.80618e-13
7.09013e-12
5.384e-11
3.54072e-11
-3.06808e-12
-1.7752e-11
2.70217e-13
2.27748e-14
0
4.7034e-11
-1.79611e-12
-9.39059e-12
8.82783e-14
1.46926e-12
5.90829e-13
-2.03684e-11
2.70651e-13
-3.07888e-13
-6.76452e-12
-5.91658e-13
-2.0711e-11
5.21252e-13
-9.82136e-12
-8.80182e-13
3.24576e-11
-1.73675e-11
-1.01479e-11
-3.29614e-13
2.94237e-13
-1.44542e-12
-3.00823e-11
-2.38972e-13
-9.70939e-12
-8.0591e-12
-1.83928e-12
6.25095e-14
-5.02057e-13
1.25735e-13
-1.83853e-11
-2.86231e-11
-6.01805e-13
4.41879e-13
-2.97959e-13
-3.43643e-11
-1.01518e-12
1.26055e-13
1.39518e-11
4.10818e-13
7.09379e-13
-2.48979e-13
-3.11613e-11
1.48985e-13
1.48966e-13
1.93659e-13
-3.99656e-13
1.23833e-11
-1.57364e-13
5.36266e-13
1.59325e-13
2.66851e-14
1.12492e-13
2.98006e-13
6.43143e-15
5.96355e-13
-2.14995e-11
0
2.08681e-11
2.94175e-13
-2.40646e-11
-2.59984e-11
-2.36001e-11
-1.31475e-11
3.1534e-14
1.17695e-11
6.13733e-13
5.01971e-12
3.7239e-13
1.03943e-12
-5.44056e-13
-3.7999e-11
7.61462e-12
-1.04193e-11
-2.8235e-13
-2.93414e-13
1.15258e-12
-1.18499e-13
-1.21238e-11
-9.85176e-13
0
-3.89969e-11
4.03755e-11
1.83436e-14
-3.31851e-13
7.35384e-12
4.14943e-11
2.01828e-11
-9.92359e-12
-6.30513e-14
1.17385e-12
1.41129e-12
1.77155e-11
-4.71758e-12
-1.60861e-13
2.50323e-11
-5.60524e-15
1.31552e-14
5.68629e-13
-1.13035e-11
-5.97488e-13
1.0934e-11
-6.02901e-13
6.76017e-13
-1.92657e-13
1.7305e-11
3.05181e-12
3.01422e-13
1.83565e-11
1.20691e-11
1.01507e-11
-2.37361e-14
1.31591e-11
1.6062e-13
-9.25421e-12
-1.64014e-11
-2.19379e-11
4.01648e-14
1.29631e-11
5.95812e-13
-1.09232e-13
1.08458e-11
8.28267e-13
2.97805e-13
2.18015e-13
-4.73572e-13
-4.8806e-14
-2.9245e-13
1.48993e-13
-9.77683e-12
2.23629e-11
-2.37653e-11
2.84144e-11
0
0
4.56288e-11
2.71374e-11
-8.06535e-12
-9.09816e-12
1.17523e-11
-1.25846e-11
3.06805e-12
4.77174e-11
-5.88765e-13
5.89762e-13
-5.87928e-13
-3.60978e-11
5.14708e-11
-1.39278e-12
1.3452e-13
5.85656e-13
5.28029e-12
-2.84276e-13
2.23549e-11
2.23211e-13
-1.87397e-11
5.88753e-13
-1.91743e-11
4.13588e-13
2.95481e-13
-5.86148e-13
2.35902e-12
-3.25564e-13
-5.28103e-13
2.03474e-13
-2.9247e-13
5.87926e-12
-6.18242e-13
3.21177e-12
2.33349e-13
-2.58429e-11
3.274e-11
2.8484e-11
9.49615e-14
-4.54384e-15
-8.96187e-13
2.25336e-13
-1.97963e-11
3.07582e-11
1.25253e-16
-1.73069e-11
-1.23615e-13
-9.04166e-13
5.82951e-13
-2.97991e-13
1.70028e-11
9.64737e-12
-1.38294e-11
1.03268e-13
-3.76137e-12
-4.29582e-13
-1.49227e-11
3.30881e-12
0
0
-7.49432e-13
5.47151e-15
-1.26259e-11
9.52384e-12
-1.18164e-11
-2.21797e-11
-4.5026e-13
-5.08594e-13
1.04303e-11
-2.94474e-13
-2.26608e-11
2.44522e-11
-2.78298e-11
0
0
-2.25203e-11
-2.9424e-13
7.76715e-12
2.48767e-11
-2.81129e-13
1.11995e-12
3.68293e-12
1.1517e-12
-1.9462e-11
-4.01815e-11
-4.35746e-11
4.62951e-12
4.14201e-11
1.20819e-13
3.97765e-12
2.92839e-13
8.51741e-12
-5.56025e-13
1.1543e-11
-5.54776e-14
1.84456e-11
-1.22876e-12
2.15862e-11
-1.2098e-13
1.05311e-13
-1.99288e-11
-5.90897e-13
-2.49916e-11
1.02367e-11
3.4401e-13
1.46225e-12
2.35537e-12
-1.4275e-13
5.1769e-12
-2.8067e-13
2.8474e-13
2.34045e-13
-5.71807e-11
-1.0938e-11
-5.89696e-12
2.98727e-13
1.08775e-12
1.95628e-11
-3.03693e-11
-2.93782e-13
-2.06591e-11
-1.37306e-12
1.50722e-12
-9.36363e-12
-1.22184e-11
-1.06799e-11
1.47581e-13
-1.29512e-11
-6.30854e-13
9.07201e-12
-1.60174e-13
1.03826e-11
7.95986e-13
-1.23678e-11
0
6.78272e-13
-1.09914e-11
-1.19895e-11
-9.58707e-12
-8.95603e-14
1.19913e-12
-9.84788e-12
-2.14056e-11
-1.23718e-11
5.98392e-13
-1.99796e-11
2.485e-13
0
1.46432e-12
2.93116e-13
0
-8.82704e-13
-1.19502e-12
-4.4303e-13
-1.57661e-11
-4.4303e-13
-6.13853e-13
-3.50554e-11
3.71594e-11
-5.31836e-12
-2.94441e-12
1.86881e-12
-4.0659e-11
1.47278e-12
9.26385e-12
-2.92861e-13
7.05895e-13
1.81742e-12
-2.26057e-11
1.23197e-11
8.78473e-13
-1.14514e-11
-2.13721e-11
-3.43369e-13
9.80369e-12
4.36721e-11
-4.31387e-11
2.54702e-11
6.81686e-13
-1.85256e-13
-2.04731e-12
5.88888e-13
2.77081e-11
7.01086e-12
-9.58232e-12
-6.63566e-13
-9.05842e-13
2.86474e-11
2.47777e-13
4.26329e-14
3.58511e-11
1.91989e-11
3.895e-13
-2.68291e-14
-6.55894e-14
2.05033e-11
1.0731e-13
2.74319e-11
-1.20076e-13
-1.14773e-11
1.12123e-11
-9.19152e-12
2.73554e-11
9.60445e-15
-6.85089e-12
9.03853e-12
1.50068e-11
6.18628e-12
-1.93783e-12
5.96492e-13
8.83419e-13
7.50635e-13
1.18722e-11
-9.23208e-12
1.13588e-11
2.17284e-11
1.06455e-11
9.94155e-12
-1.07396e-11
9.28318e-13
2.02838e-11
2.117e-11
2.87041e-11
-2.04983e-12
2.93091e-13
-2.10574e-11
-2.94245e-13
1.19514e-12
-2.12794e-11
-1.74907e-11
2.13651e-11
1.84059e-12
-1.33333e-12
0
0
7.35894e-11
-1.30048e-12
-6.50512e-13
1.0349e-11
-3.93019e-12
2.13773e-11
-6.06074e-11
4.99207e-14
3.57433e-13
-8.62668e-12
2.07891e-11
4.24715e-11
-3.45409e-13
2.05407e-13
-4.00655e-13
-3.22376e-12
-3.54406e-12
-1.7267e-13
-2.023e-13
-1.1333e-11
1.16988e-12
0
-2.76275e-11
2.59995e-13
-1.43092e-11
1.30465e-12
-4.08662e-11
-2.95427e-11
1.0313e-11
7.87297e-12
-3.52569e-11
-4.2601e-11
-1.77142e-11
2.69531e-13
1.93204e-11
2.15621e-11
-5.10268e-13
-2.83306e-11
4.32652e-13
1.49161e-13
3.07854e-13
-3.3153e-15
6.03011e-13
6.62367e-13
5.4055e-13
2.6679e-13
-1.23355e-11
-1.22861e-11
1.49172e-13
1.49254e-13
-5.76873e-13
1.45882e-12
1.21841e-11
9.15441e-12
-2.18987e-13
-5.29842e-13
9.97033e-12
2.17879e-11
1.19423e-11
-1.03445e-11
-2.53768e-11
-2.09007e-11
-3.43368e-11
0
-1.46919e-12
2.11132e-11
-1.88556e-11
-2.03279e-11
2.71393e-13
1.30942e-11
-2.13971e-11
-1.22414e-12
7.67324e-13
3.46615e-11
5.88417e-13
3.87203e-11
5.11438e-11
-6.02317e-13
3.13437e-13
-9.40294e-12
-2.14196e-11
4.16504e-11
-2.73253e-11
9.53386e-12
-1.15554e-11
-2.08631e-11
-3.75755e-11
2.27839e-11
-8.17576e-14
-9.64864e-12
-2.14687e-11
1.17596e-12
-1.17633e-12
-1.26362e-13
2.39657e-13
1.93659e-11
-5.27656e-12
2.7068e-13
-2.65511e-13
-3.058e-12
-8.42432e-13
-2.1321e-14
3.00465e-11
3.05413e-14
1.98155e-13
0
2.33834e-11
-1.04843e-11
1.98602e-13
-2.06653e-11
-2.18565e-11
1.71116e-12
-3.01277e-13
9.75217e-12
7.46391e-12
-2.82475e-11
2.21684e-13
-1.35221e-11
-4.31079e-13
1.02506e-11
-9.13478e-12
7.9105e-12
7.19688e-12
2.09024e-12
-1.01464e-11
-7.91266e-13
-1.6745e-13
8.34141e-13
6.88368e-14
7.02807e-14
2.27269e-14
1.2321e-11
-9.21717e-12
5.9689e-13
-9.30357e-13
-1.49333e-12
3.71335e-13
6.23488e-12
-2.97701e-13
1.78729e-12
-2.67584e-12
1.81151e-11
1.94404e-11
9.79584e-12
1.73942e-11
-1.02191e-11
3.05894e-12
8.62424e-11
4.40235e-11
-3.72811e-11
4.16322e-11
8.7907e-13
9.08772e-13
-3.9678e-13
9.10186e-12
3.72724e-13
-1.85552e-12
2.69822e-11
6.13386e-13
1.88395e-11
3.83222e-14
-1.28284e-11
-2.04459e-11
2.8489e-13
-2.55186e-13
5.41548e-13
4.81209e-11
0
4.18263e-13
1.10066e-11
-1.82853e-11
1.06568e-12
-1.1997e-12
1.94724e-13
1.42906e-11
3.662e-13
-4.82341e-11
7.42433e-14
-3.32809e-13
2.5956e-11
0
1.86771e-12
2.7735e-11
-1.20277e-12
1.80602e-12
8.99772e-13
-4.59438e-11
1.8092e-12
-1.39582e-13
0
-4.65811e-14
-1.87164e-13
-3.27105e-13
1.05745e-11
2.97326e-13
1.07373e-11
1.19409e-11
1.1591e-11
-7.46291e-13
-8.93264e-13
8.14267e-15
-1.38286e-12
1.70132e-13
-1.79588e-13
-3.4647e-13
1.23194e-11
9.38616e-12
1.0408e-11
4.46635e-13
1.05176e-11
2.64881e-11
0
-6.73994e-13
2.23937e-13
-2.96748e-13
3.26153e-12
-5.92869e-13
-2.97476e-13
-7.24862e-12
3.66146e-13
9.6798e-12
1.52909e-11
-1.00277e-11
5.32686e-12
6.06056e-12
1.9571e-11
-2.23177e-11
-4.64366e-13
-2.11045e-13
4.98863e-14
-1.94946e-11
5.89404e-13
7.35381e-12
-1.00768e-12
-1.79663e-11
-2.62286e-11
-1.71414e-12
2.159e-11
-9.8105e-14
-6.31071e-13
4.51674e-13
-5.91464e-13
-7.72644e-12
-8.06433e-12
9.26676e-12
-7.96581e-12
-3.48544e-12
-2.9659e-12
1.8856e-13
1.0482e-13
4.16409e-13
4.25989e-11
-6.36473e-12
1.69385e-11
-5.00304e-12
5.98624e-12
-6.68075e-11
0
-9.9971e-12
1.07338e-11
1.06666e-12
6.15006e-11
-2.36011e-11
-2.15451e-11
-3.7054e-11
-3.78197e-13
0
-1.83723e-11
-3.65653e-13
1.29255e-11
-2.96401e-13
2.99687e-11
-3.82869e-11
-5.4605e-11
5.80931e-13
2.72943e-11
2.27314e-12
2.30768e-11
-9.24292e-12
1.50108e-13
-1.81446e-11
2.34113e-11
-5.91435e-13
-1.83886e-11
2.04751e-11
-8.88941e-13
4.43764e-11
-1.78649e-12
-9.40451e-12
3.72179e-12
1.75868e-11
-1.56699e-14
-1.18416e-14
1.10079e-11
1.9873e-13
2.85393e-14
-8.02717e-12
-4.28192e-14
-2.97813e-13
9.05642e-12
5.93528e-13
-1.18548e-12
1.4803e-13
1.47989e-13
9.47119e-12
1.48024e-13
-3.08213e-11
0
-5.93863e-13
-9.34653e-12
1.28087e-11
9.23247e-13
5.85988e-13
-5.81461e-13
-3.77054e-13
-1.01554e-11
2.97751e-13
7.31438e-12
4.45139e-13
-9.62909e-12
4.40604e-12
2.41621e-11
0
-4.37496e-14
6.90551e-14
-6.16529e-13
8.81762e-13
2.1569e-11
2.85695e-12
-9.61892e-12
3.06447e-11
-2.98844e-13
-9.49251e-13
2.95347e-13
-9.43804e-13
1.80129e-11
1.39147e-12
4.99483e-12
-2.9601e-13
-9.61677e-12
1.10332e-11
1.31456e-12
1.9519e-14
-7.81729e-12
-2.13728e-14
7.98655e-12
-1.97246e-11
3.53627e-12
-3.9953e-12
5.91831e-13
-4.9988e-12
2.05941e-11
4.54652e-12
4.10631e-12
2.54557e-12
5.70109e-12
1.91753e-11
-7.53843e-12
-1.03587e-12
1.31722e-11
4.16361e-12
4.64039e-13
1.67521e-11
9.46147e-13
2.66731e-13
8.00439e-13
-1.02963e-11
-7.79746e-12
1.48027e-13
7.40812e-13
6.12582e-12
-2.4398e-11
-1.42063e-12
-2.94384e-13
1.475e-12
-2.61809e-11
5.86516e-12
-3.52954e-12
-8.74315e-12
-1.67661e-11
2.7442e-12
-2.45219e-11
-5.14491e-12
7.3484e-12
-1.06377e-11
1.01257e-11
3.26938e-12
2.88783e-12
-1.48395e-13
-9.64984e-12
-1.276e-11
7.84504e-14
-1.47993e-13
-1.09491e-11
-5.91861e-13
-1.08043e-11
0
-1.48379e-13
7.42413e-13
8.89222e-13
-1.4813e-13
-1.4802e-13
-1.16873e-11
9.46683e-12
0
-1.21311e-11
-9.91712e-12
-2.96252e-13
-1.48201e-13
1.51081e-11
3.55159e-12
-7.39135e-13
9.75218e-12
1.55178e-11
-7.38931e-13
1.40367e-11
2.95634e-13
-1.18388e-11
1.54043e-11
7.40004e-13
-2.9564e-13
-1.15829e-11
-4.79553e-13
-4.43077e-13
2.80609e-12
5.16401e-13
3.50404e-12
5.54126e-13
1.02129e-11
0
9.16066e-12
-2.69283e-12
-3.28772e-12
-2.0358e-12
-3.44208e-12
-5.53853e-13
4.4247e-13
-1.47713e-13
1.4792e-13
0
-8.71924e-12
4.98452e-12
1.48061e-13
1.3944e-11
-9.04887e-12
0
-3.68834e-13
-1.32957e-12
-6.80295e-12
-1.03534e-12
-6.05919e-12
-1.29965e-11
7.1434e-12
-1.88397e-11
-9.94028e-12
1.47877e-13
-4.31479e-12
9.01105e-12
9.76084e-12
-1.18342e-12
-1.10816e-11
-9.59017e-13
5.8339e-12
1.13852e-11
1.47876e-13
1.0181e-11
3.20601e-12
4.13571e-12
2.95839e-13
1.48007e-13
-9.16449e-12
-7.00789e-13
3.13405e-12
1.10646e-13
-4.79402e-13
3.31646e-13
3.50255e-12
-1.47794e-13
9.02831e-12
-1.48121e-13
-2.95963e-13
6.39059e-12
-2.95412e-13
-9.89734e-12
7.38577e-13
-2.95391e-13
-1.0493e-11
0
1.4812e-13
2.22294e-12
9.03515e-12
-9.62044e-12
-4.43738e-13
-9.46446e-12
1.30132e-11
9.90949e-12
2.95982e-13
0
4.44599e-13
-1.48056e-13
2.96026e-13
1.0209e-11
-5.91661e-13
1.47903e-13
-1.87833e-11
8.8746e-13
2.23402e-11
-1.48008e-13
2.96103e-13
9.17642e-12
-1.22796e-11
-5.91523e-13
-1.47845e-13
1.47847e-13
4.4353e-13
1.47835e-12
2.95733e-13
0
2.96007e-13
2.04165e-11
-2.95743e-13
1.10855e-11
-7.39012e-13
-1.4784e-13
-5.91341e-13
0
-2.36458e-11
-1.24205e-11
-3.10678e-12
2.95809e-13
-1.52274e-11
1.30063e-11
1.47854e-13
5.76964e-12
1.47929e-13
-4.43464e-13
-1.10822e-11
2.9563e-13
-2.95784e-13
0
-5.91364e-13
-1.50794e-11
-1.47938e-13
5.92257e-13
1.12522e-11
4.43688e-13
-1.19705e-11
-1.30069e-11
-8.42867e-12
-9.02119e-12
1.1827e-11
-9.1656e-12
-1.47928e-13
-5.92215e-13
2.961e-13
0
1.18222e-12
1.478e-13
5.91472e-13
-2.07063e-12
-2.9566e-13
-1.19704e-11
-9.75602e-12
7.39467e-13
4.43668e-13
-4.43343e-13
1.0046e-11
-1.3154e-11
-4.43652e-13
-7.39719e-13
-4.43584e-13
-1.33005e-11
-2.02431e-11
-2.9556e-13
1.00485e-11
-1.4773e-13
-4.43256e-13
-8.8704e-13
8.58002e-12
1.03602e-11
0
4.43571e-13
-2.95618e-13
0
0
-1.10843e-11
-1.19747e-11
0
-1.4799e-13
1.00671e-11
1.258e-11
-1.47934e-13
7.39413e-13
0
-1.47858e-13
-1.47875e-13
1.47923e-13
-2.95975e-13
-2.96081e-13
7.39884e-13
-1.06527e-11
0
1.15364e-11
-9.4652e-12
0
-7.39494e-13
1.47918e-13
-1.02083e-11
-4.43912e-13
-1.5091e-11
-1.46444e-11
5.91576e-13
-2.80974e-12
-1.47879e-13
0
1.47872e-13
-2.95766e-13
-4.43747e-13
-8.72874e-12
-1.03544e-12
9.9088e-12
-1.47869e-13
1.47872e-13
1.33097e-11
1.03516e-12
1.1533e-11
-1.33069e-12
-2.95761e-13
2.21864e-12
0
-9.1684e-12
-1.06466e-11
4.43686e-13
1.0355e-12
5.91693e-13
1.47877e-13
-1.12363e-11
8.57569e-12
2.95761e-13
1.47888e-13
0
1.47882e-13
1.47927e-13
-7.39868e-13
9.17402e-12
1.47904e-13
4.43554e-13
1.47847e-13
6.50612e-12
8.87341e-13
-3.99259e-12
1.00557e-11
-5.02932e-12
0
9.46937e-12
2.66212e-12
1.10884e-11
-1.47841e-13
4.43593e-13
-9.4654e-12
-8.87233e-13
-1.22722e-11
-1.33088e-12
-1.2128e-11
-2.95788e-13
1.18281e-12
-9.60874e-12
1.0201e-11
2.95743e-13
2.95827e-13
-1.02039e-11
-9.75835e-12
-3.40038e-12
1.47847e-13
-1.47842e-13
7.39119e-13
-8.8696e-13
1.47859e-13
0
0
-2.36658e-12
-1.47873e-13
8.87101e-13
1.13838e-11
1.47835e-13
1.07921e-11
1.47856e-13
1.37541e-11
1.09465e-11
-1.77563e-12
-9.02435e-12
9.61364e-12
-1.03512e-12
-1.4786e-12
-1.28635e-11
-9.61132e-12
-1.47891e-13
2.95851e-13
-2.95913e-13
1.33137e-12
-1.0502e-11
-9.76151e-12
0
-2.95768e-13
9.90806e-12
-7.39421e-13
-1.28667e-11
-1.47911e-13
2.95844e-13
0
-2.9581e-13
0
-2.9577e-12
-1.47884e-13
1.47881e-13
-1.47878e-13
-5.91513e-13
-1.47892e-13
-1.47904e-13
-1.06487e-11
9.02129e-12
-4.43651e-13
7.39447e-13
1.31629e-11
8.87363e-13
1.12388e-11
1.00551e-11
4.43624e-13
1.22745e-11
1.47886e-13
-1.47883e-13
-2.30707e-11
-1.47909e-13
-1.77512e-12
7.39604e-13
4.43679e-13
-1.09422e-11
8.57594e-12
-1.47867e-13
-2.95764e-13
2.95763e-13
0
0
-1.18362e-12
-1.12438e-11
0
-1.47871e-13
1.37505e-11
1.242e-11
9.16853e-12
0
9.31717e-12