/*--------------------------------*- C++ -*----------------------------------*\
  =========                 |
  \\      /  F ield         | OpenFOAM: The Open Source CFD Toolbox
   \\    /   O peration     | Website:  https://openfoam.org
    \\  /    A nd           | Version:  10
     \\/     M anipulation  |
\*---------------------------------------------------------------------------*/
FoamFile
{
    format      ascii;
    class       volScalarField;
    location    "0.4";
    object      gradTz;
}
// * * * * * * * * * * * * * * * * * * * * * * * * * * * * * * * * * * * * * //

dimensions      [0 -1 0 1 0 0 0];

internalField   nonuniform List<scalar> 
47104
(
5.96396e-13
7.45367e-13
4.46795e-13
-3.71779e-12
1.48558e-13
0
-1.4871e-13
-1.48928e-13
-4.47202e-13
-1.49091e-13
-2.9813e-13
-1.48935e-13
-1.75328e-11
-8.88122e-12
1.03349e-12
-1.47641e-13
1.03613e-12
8.76626e-12
-1.16165e-11
9.9869e-12
-8.93505e-12
2.9715e-13
3.24975e-12
-8.77998e-12
-1.45444e-13
-5.09052e-12
3.51197e-12
1.47714e-13
-2.97142e-13
-1.04238e-12
-9.96276e-12
-8.88062e-13
0
-3.88702e-12
-7.4097e-12
7.97967e-12
-2.87925e-13
1.02429e-12
-1.02124e-11
-1.08545e-11
2.97099e-13
0
4.3632e-12
1.28244e-12
1.40674e-13
-2.53213e-12
-2.42236e-12
0
2.95259e-13
-1.14377e-11
-9.50755e-12
0
-2.03618e-12
1.42493e-13
3.23548e-12
1.40673e-13
0
-1.45438e-13
-2.244e-11
-9.65543e-12
-9.2202e-12
4.44062e-12
-3.80462e-12
-1.02212e-11
9.68932e-12
5.6996e-13
0
4.2435e-12
-1.50972e-11
1.01116e-11
0
-5.94332e-13
4.5791e-12
3.21911e-12
2.13786e-11
-2.90868e-13
1.46325e-13
-4.43135e-13
1.48576e-13
-7.44609e-13
0
9.82942e-12
9.35974e-12
-7.4e-13
-2.95246e-13
-5.90501e-13
-8.88035e-13
-1.20344e-11
-2.9786e-13
-2.04221e-11
0
-2.98113e-13
-7.44526e-13
-4.4605e-13
1.48533e-13
-4.15901e-12
-9.96233e-12
7.44574e-13
9.53998e-12
-1.49094e-13
5.58629e-13
8.76985e-13
1.28425e-11
9.10284e-12
-1.1265e-13
4.84061e-13
0
0
-5.97376e-13
-3.17536e-13
-1.91505e-14
-2.13225e-12
9.69462e-12
2.3242e-12
-2.65017e-12
-7.30938e-13
-1.72812e-11
-3.73578e-12
7.14468e-12
9.83647e-12
-6.8681e-12
3.85193e-13
-7.74729e-12
-9.19344e-12
0
2.95676e-13
-1.98271e-11
5.94152e-13
-3.90067e-12
-7.46501e-13
-9.54923e-12
3.01954e-12
-2.78755e-11
-2.63504e-12
6.68438e-12
-6.96882e-12
5.82403e-13
1.8561e-11
1.03853e-11
-8.95206e-13
0
2.63178e-12
-1.18314e-12
0
-2.1561e-11
-2.87092e-13
-1.58595e-11
-2.93228e-13
-1.26999e-13
1.49159e-13
-2.98352e-13
2.27941e-13
5.91341e-13
5.80729e-13
-2.38285e-11
-8.60039e-13
-7.77604e-12
2.05135e-11
-6.05298e-12
0
2.98465e-13
-1.84213e-11
2.95927e-12
8.73597e-13
-6.92042e-12
8.63998e-13
1.995e-11
0
-5.35686e-12
-2.98429e-13
1.49339e-13
-3.88906e-12
-1.1883e-12
-5.89227e-13
-1.17288e-11
2.93044e-13
2.93557e-13
2.95743e-13
6.37141e-13
-7.46597e-13
2.98711e-13
-3.32925e-12
-2.457e-12
-9.24709e-12
-3.07068e-12
7.58116e-12
-2.66333e-12
-6.09155e-12
-4.22701e-12
-1.09021e-11
-1.9143e-14
-1.10692e-11
1.25404e-11
1.4919e-13
-2.6184e-13
1.10555e-11
-7.64202e-13
7.46544e-13
9.74518e-12
3.82396e-14
1.01837e-11
1.33629e-13
2.5439e-12
4.06109e-12
2.31814e-14
-1.39971e-11
-5.47561e-13
4.27984e-12
4.28562e-13
1.94487e-14
-2.24092e-13
1.25322e-11
1.55374e-11
5.68219e-12
-1.55869e-11
1.49957e-12
-2.21535e-11
-1.31413e-11
1.58158e-11
-1.15299e-11
8.12295e-12
2.53945e-11
3.32985e-12
-5.44903e-12
-2.13091e-12
-5.48875e-12
1.54799e-11
-8.16896e-12
-2.10241e-11
9.6243e-14
1.39813e-13
2.99028e-13
2.66391e-11
1.73444e-06
1.52626e-06
1.55285e-06
1.42297e-06
4.10961e-08
6.92793e-12
3.65887e-13
-4.10689e-13
0
-9.13227e-12
1.52596e-06
-1.15392e-06
-1.18648e-06
-9.68141e-07
4.24333e-08
1.4523e-11
1.11948e-11
-8.36294e-13
-5.99818e-13
1.82957e-12
1.5528e-06
-1.18647e-06
-1.22169e-06
-9.90542e-07
4.25434e-08
2.27176e-11
9.289e-12
9.67444e-12
-9.87947e-12
1.51764e-11
1.42306e-06
-9.68195e-07
-9.90566e-07
-8.28044e-07
4.41792e-08
1.44933e-11
-9.92877e-12
9.40696e-12
2.47905e-11
-1.72453e-11
4.11359e-08
4.2475e-08
4.25633e-08
4.4184e-08
-3.00718e-09
4.20893e-12
-3.13855e-13
1.25456e-13
-1.28324e-11
-6.0066e-12
1.26503e-11
9.07651e-13
1.51444e-12
7.24628e-12
-3.00624e-12
2.03401e-11
9.57247e-12
1.68665e-13
-9.01587e-13
1.09058e-11
4.74373e-13
9.07501e-12
1.4717e-11
9.64355e-12
-8.8714e-14
1.13671e-11
4.0866e-13
2.97698e-13
-3.43013e-13
-1.24942e-11
-9.67594e-12
-2.68969e-14
-4.52673e-13
1.96287e-13
-1.00302e-11
3.41709e-13
0
-1.12518e-11
-2.31722e-11
1.30678e-13
-7.42532e-11
-7.45754e-11
-9.56746e-11
-1.10746e-10
-2.41392e-11
-2.01822e-11
-3.97023e-12
-6.00396e-12
-4.98592e-12
1.23476e-09
-2.80893e-06
-2.29136e-06
-2.25879e-06
-2.32264e-06
-2.57614e-06
3.04966e-10
-1.43944e-11
1.00849e-13
-7.18915e-11
-2.80873e-06
-225.174
-293.729
-294.364
-292.835
-0.168447
1.04136e-08
-2.07995e-13
7.61088e-14
-8.31544e-11
-2.29098e-06
-293.728
-406.791
-408.293
-404.49
-0.558712
-1.11498e-08
8.5432e-13
1.84855e-13
-1.0693e-10
-2.25898e-06
-294.364
-408.293
-409.877
-405.913
-0.561246
-9.05131e-09
1.56118e-11
-9.25686e-14
-7.5312e-11
-2.32424e-06
-292.835
-404.49
-405.913
-402.282
-0.558944
-1.62833e-08
6.47546e-14
8.79808e-14
-4.29805e-11
-2.57021e-06
-0.168477
-0.558726
-0.561251
-0.558949
-0.0100019
5.2903e-09
3.74189e-13
-4.91412e-14
2.96842e-13
2.62321e-10
1.035e-08
-1.12048e-08
-9.19211e-09
-1.72658e-08
5.45709e-09
-1.99355e-11
-1.17213e-13
-2.97683e-13
1.12172e-11
-1.2665e-11
1.77039e-13
-9.12117e-12
-4.90964e-13
1.54755e-11
-2.49756e-13
1.23412e-11
0
-9.96057e-12
2.77937e-12
-1.90336e-12
-7.76808e-14
2.22368e-13
1.39251e-11
1.174e-13
-4.11652e-12
-7.42217e-13
-1.93698e-14
-8.92004e-12
-1.48218e-12
4.14873e-13
2.31836e-10
1.26403e-09
1.22343e-09
1.29539e-09
-1.17735e-11
2.04389e-11
1.18545e-11
3.82238e-13
-2.20517e-11
1.62133e-09
0.0056976
0.0111728
0.0112465
0.0110141
-0.000111603
1.41938e-09
1.06793e-11
-2.87029e-13
2.40812e-10
0.00568803
2.70581e-06
1.51263e-12
-2.03728e-13
1.24892e-09
0.011171
4.8291e-06
-1.60374e-13
1.04918e-11
1.22721e-09
0.0112438
4.89849e-06
1.40302e-12
-3.99918e-14
1.18594e-09
0.0108938
4.53803e-06
1.03328e-11
5.21382e-13
1.30845e-12
-0.000110116
-1.5175e-07
-4.07974e-12
9.20194e-12
2.96305e-13
1.37733e-09
2.70176e-06
4.82803e-06
4.88979e-06
4.31773e-06
-1.28363e-07
5.95972e-13
7.67864e-13
1.29189e-13
4.18246e-13
-1.07124e-11
1.12095e-11
-9.4573e-12
-1.23786e-13
4.57049e-13
8.29487e-14
-7.56567e-13
0
1.22841e-12
-3.54682e-13
3.54658e-13
2.89294e-13
-1.1473e-13
1.02295e-13
-8.27593e-14
1.02821e-11
-2.77317e-13
-1.29363e-13
1.11525e-11
2.97265e-13
2.47433e-13
3.82066e-11
2.8559e-10
2.71493e-10
2.78239e-10
1.92148e-11
-5.95499e-13
1.42381e-11
-1.7927e-12
5.20194e-13
-1.3633e-09
0.000220577
0.000350651
0.000341532
0.000346015
-3.02645e-06
1.15635e-10
1.44587e-11
-1.31725e-13
2.21654e-11
0.000203264
1.59313e-07
-3.97825e-13
2.52016e-13
2.90244e-10
0.000348158
3.40136e-07
-1.11889e-11
-1.40461e-11
2.99514e-10
0.000342376
3.54984e-07
-1.56416e-11
5.04337e-13
3.03966e-10
0.000554208
3.01293e-07
2.35994e-14
-1.94142e-13
-9.73892e-13
8.74656e-05
-1.09837e-08
1.34355e-11
3.3146e-13
2.97643e-13
1.81291e-10
1.63431e-07
3.40632e-07
3.60244e-07
6.37153e-07
-1.92023e-08
1.502e-12
2.61842e-13
-9.03989e-14
-1.26322e-11
-6.38251e-13
-1.01873e-11
2.02938e-11
1.07498e-11
-1.48412e-11
-4.39389e-12
-1.20689e-11
-1.09867e-13
-6.33856e-13
-2.23235e-11
-3.44363e-13
-1.11138e-13
-3.92949e-13
1.12736e-11
-9.88713e-12
-2.74194e-13
6.80524e-13
7.43833e-13
9.15473e-12
-2.38232e-12
-6.26561e-13
1.46216e-12
6.55378e-11
9.63329e-11
8.70657e-11
-4.44564e-11
1.90928e-11
1.69614e-13
2.97255e-13
-2.04361e-13
-1.72195e-09
9.4354e-05
0.000119721
9.99397e-05
0.000128469
-6.67566e-07
2.04447e-11
-1.0786e-11
-3.99207e-13
-2.01793e-11
-2.93654e-05
2.33686e-08
1.89027e-11
-5.23207e-13
5.06133e-11
9.38529e-05
5.02238e-08
1.05324e-13
3.01526e-13
6.79273e-11
0.000100997
5.32993e-08
-1.3041e-12
-1.19904e-11
8.58964e-11
0.000181098
4.36701e-08
-1.01791e-11
-9.57184e-12
-2.39615e-11
-3.14183e-06
-1.72845e-09
3.50443e-12
-9.35324e-12
-5.96606e-13
8.53825e-12
2.35654e-08
5.03671e-08
5.61538e-08
9.26542e-08
-6.47141e-09
-2.10792e-12
-3.85699e-13
4.07502e-13
1.36893e-13
-9.99398e-12
-1.13118e-11
1.17193e-11
4.03622e-13
4.78421e-13
1.16246e-13
-1.02833e-11
-3.87757e-14
-5.95434e-13
4.72323e-12
-5.2217e-13
3.30619e-14
-6.33129e-12
-7.86186e-13
1.44433e-13
-7.7287e-13
2.26429e-13
0
9.74719e-14
3.87395e-12
-4.30619e-13
-5.85262e-13
2.22512e-11
1.17201e-11
3.8298e-11
2.17734e-11
-3.76285e-11
-1.05816e-11
1.47148e-11
-1.86893e-11
-1.65013e-09
7.24308e-05
9.42788e-05
7.26179e-05
0.000103765
2.89888e-07
2.77087e-11
4.79508e-13
-5.77541e-14
-6.15033e-11
0.000916801
-2.39686e-09
4.06685e-13
7.39558e-14
3.5134e-12
-1.37824e-05
-6.27609e-09
1.02333e-11
2.40991e-11
2.57826e-11
7.21749e-05
-6.71594e-09
1.11526e-11
-3.48401e-13
4.09279e-12
0.000106435
-5.84128e-09
-6.78266e-13
-2.27874e-13
3.33625e-11
1.82395e-07
4.06455e-10
-1.30261e-11
1.44757e-13
-6.27124e-12
1.75779e-11
-3.06367e-09
-6.66615e-09
-1.47001e-08
-2.60735e-07
2.35647e-08
-6.0263e-13
-3.73173e-13
-1.48836e-13
1.21997e-11
3.669e-13
1.10859e-11
-1.79177e-11
-1.08257e-11
-2.79646e-13
4.09031e-12
-5.50072e-13
-5.9548e-13
1.48904e-13
1.92651e-11
1.77145e-13
-1.15256e-11
5.86934e-14
-1.13917e-11
9.63695e-12
-3.84223e-14
1.32991e-11
-5.9559e-13
-1.35565e-11
-2.74231e-11
9.2307e-13
-5.56029e-12
-1.19454e-10
-1.48842e-10
-1.52608e-10
2.1792e-12
1.88169e-11
-4.84484e-13
-1.24755e-11
1.95921e-11
-1.28217e-10
4.39146e-05
-2.90788e-05
-5.79439e-05
-1.17903e-05
1.41121e-06
-6.36488e-11
9.61544e-12
-9.80612e-12
4.04251e-11
-0.000425094
-1.43215e-07
2.39515e-12
3.53369e-13
-1.10955e-10
6.4979e-05
-3.38549e-07
8.78948e-14
-1.0022e-11
-1.084e-10
-5.56508e-05
-3.5179e-07
-8.97052e-13
1.25542e-11
-1.16354e-10
-1.12478e-05
-2.92512e-07
3.56358e-13
9.70837e-12
9.46857e-12
1.20257e-06
6.79627e-09
3.74732e-12
-2.1438e-13
2.95689e-11
-7.27941e-11
-1.43448e-07
-3.38391e-07
-3.46081e-07
5.31635e-08
-1.21684e-08
3.01295e-13
7.16343e-15
-2.97783e-13
4.42633e-15
1.30231e-11
1.28022e-11
-1.17501e-11
3.22218e-14
-1.58248e-11
-1.33614e-11
-9.75179e-14
-1.48925e-13
-4.46784e-13
-4.29222e-12
2.95262e-13
9.8489e-12
5.88467e-12
9.37442e-12
1.36219e-13
-4.99237e-13
2.89107e-13
-2.97877e-13
4.32631e-13
2.71254e-11
-1.59193e-12
1.29245e-10
1.14173e-10
1.80057e-10
1.61166e-11
8.86958e-13
2.98661e-13
-3.57637e-12
1.32344e-13
3.35042e-13
-2.48283e-09
-0.00365412
-0.00850624
-0.00860207
-0.00834735
5.73903e-05
-2.84707e-10
-9.1507e-14
9.2226e-14
3.45856e-11
-0.00342883
-1.86653e-06
-3.00081e-13
5.68506e-14
1.03591e-10
-0.00847616
-3.0137e-06
1.16431e-11
-9.91686e-12
1.53609e-10
-0.00860725
-3.06788e-06
-1.02835e-11
-9.44955e-12
-2.93019e-13
-0.00834946
-2.82852e-06
-1.12205e-11
1.39587e-13
-1.67951e-11
5.73427e-05
7.39334e-08
-1.96308e-13
-4.91854e-13
-2.26974e-11
-2.7827e-10
-1.86726e-06
-3.01356e-06
-3.06415e-06
-2.78806e-06
6.91397e-08
-3.01167e-13
1.87283e-13
-2.9786e-13
4.94005e-13
-1.58414e-12
1.13754e-11
-2.03646e-12
1.55342e-14
5.20129e-13
6.3531e-13
-3.21996e-14
8.9377e-13
1.38504e-11
9.09147e-12
6.37034e-13
1.14592e-11
1.30603e-12
1.94724e-13
-5.9419e-14
-5.54288e-13
-1.30677e-11
1.48955e-13
2.45171e-11
-5.96154e-13
5.76372e-13
-2.46621e-11
8.8262e-13
-5.58852e-13
-5.87414e-13
4.1963e-13
1.79128e-12
8.49809e-13
1.24023e-11
-2.46071e-11
3.45747e-10
9.23935e-06
7.3925e-06
7.28489e-06
7.51421e-06
8.42761e-06
1.54037e-10
-1.97908e-11
1.03613e-11
0
9.21581e-06
-8.07532e-09
-1.21676e-11
-2.33751e-13
-8.82657e-13
7.41639e-06
-9.75469e-09
-1.06803e-13
1.00986e-11
-2.327e-11
7.32742e-06
-9.6173e-09
4.45017e-13
-5.30739e-13
1.46859e-12
7.54087e-06
-1.01201e-08
-1.00092e-11
-2.05184e-11
2.99363e-13
8.47092e-06
3.31888e-09
-1.90604e-11
1.55394e-13
-2.65693e-11
1.40187e-10
-8.07436e-09
-9.73215e-09
-9.59108e-09
-1.01093e-08
3.36433e-09
6.02208e-13
-3.01349e-13
-7.44725e-13
-1.16251e-11
-1.80529e-11
-2.20683e-11
-1.55646e-13
-1.07556e-13
1.50656e-11
-4.2871e-13
-9.92823e-12
-1.48971e-13
1.48915e-13
-1.15195e-11
9.83057e-12
-9.70072e-12
-1.05778e-11
-8.54482e-12
-9.1383e-12
1.68007e-12
-7.52405e-13
-1.4895e-13
1.15233e-13
0
4.22079e-11
-2.92924e-13
-5.85873e-13
-7.03665e-12
-8.77681e-13
4.26907e-13
-2.71758e-11
-6.97954e-12
8.41272e-14
2.42101e-11
-1.22628e-12
4.46574e-11
1.17604e-12
-2.35599e-12
5.87198e-13
-1.56252e-11
-3.97292e-13
-1.70478e-11
9.89122e-14
-2.28431e-11
-4.78098e-11
1.76018e-12
-2.70376e-13
1.53347e-11
0
5.64317e-11
-2.19256e-11
-1.1523e-11
-2.26139e-13
-2.93277e-13
1.41412e-11
5.65765e-11
-8.30881e-13
2.37484e-11
1.84323e-11
9.09732e-11
1.31539e-11
-1.43805e-12
-1.40039e-12
1.13517e-11
6.06017e-11
-1.47941e-12
3.36099e-13
-8.47369e-12
2.65889e-11
-7.23492e-12
1.99614e-12
1.88949e-11
-1.88014e-11
7.27569e-14
1.863e-12
0
-1.17075e-11
1.48938e-13
2.00344e-14
1.33955e-12
-1.09284e-11
9.49053e-12
6.34682e-14
-5.34719e-13
1.17104e-11
-7.22595e-13
-1.10136e-13
-1.38479e-11
-9.77964e-12
-4.62162e-13
2.5522e-13
-1.55418e-12
-3.50344e-13
9.22663e-12
-9.38641e-12
1.81284e-13
-1.93487e-14
-1.19128e-11
2.98121e-13
-4.02212e-11
2.92849e-12
-5.85626e-13
-1.08436e-11
5.84878e-13
-2.33638e-13
4.53996e-11
-1.19393e-12
4.64956e-13
-5.18843e-13
-1.83876e-12
4.68473e-12
4.17627e-11
5.90812e-13
4.41586e-11
1.92383e-12
-3.47145e-11
9.99845e-12
-9.04337e-12
2.34164e-11
2.59834e-13
1.4221e-13
-1.45788e-11
9.33598e-13
-2.92816e-13
1.04443e-10
-2.7343e-12
-1.05638e-11
-7.04418e-14
-2.93059e-13
2.8356e-11
-2.68574e-11
-1.1604e-12
4.42077e-13
-1.72533e-11
-1.53068e-11
1.35011e-12
9.50989e-12
-2.58962e-12
-1.08681e-11
-1.64447e-13
2.74989e-11
1.52753e-11
-6.25406e-14
2.15042e-11
8.99074e-13
3.29752e-13
-1.89811e-11
1.95348e-11
-5.72963e-14
-2.2522e-12
1.78784e-13
-1.34469e-11
8.93536e-13
1.17748e-11
3.01912e-11
2.2909e-11
-1.42354e-11
-1.59572e-14
-3.02225e-13
1.35048e-11
9.92074e-12
-1.23032e-12
-7.44475e-13
1.20063e-11
-9.93155e-12
2.98915e-14
1.17009e-11
2.87039e-13
9.20642e-12
-3.74866e-13
-8.95282e-12
-7.89333e-12
2.67449e-13
0
-1.1401e-12
2.02016e-11
2.51862e-11
1.87596e-11
2.92478e-13
-2.08663e-13
-1.97137e-11
1.06002e-11
1.43895e-13
-2.61995e-11
6.12541e-13
5.42143e-12
-1.45404e-12
-3.66408e-11
-5.88924e-13
-3.99099e-11
3.43743e-11
7.16501e-12
1.26784e-11
5.85467e-13
1.13863e-12
3.93971e-13
-1.33455e-13
-5.66436e-12
0
6.45656e-13
-5.69799e-12
-1.08089e-13
-4.86324e-14
-1.17243e-12
0
2.15874e-11
3.60571e-13
-1.41766e-11
-2.04723e-11
3.70997e-11
2.70085e-12
1.37141e-11
1.43904e-12
-1.08922e-12
4.41672e-11
-3.95382e-12
-7.29212e-13
9.23373e-12
-2.00097e-11
-7.35695e-13
-1.28723e-12
-2.22636e-11
-3.05228e-11
-7.4272e-12
4.70437e-14
-1.20558e-12
1.14484e-11
1.4891e-13
-2.88815e-13
-4.77743e-13
-1.33819e-12
-2.2252e-13
-7.48624e-14
6.63386e-13
-1.18583e-11
6.57213e-13
-1.32549e-11
-2.97787e-13
6.79792e-13
-2.30338e-14
-2.04199e-13
9.8125e-14
-1.94966e-13
-9.28704e-12
1.02061e-11
-1.42283e-13
-1.29578e-13
-3.53893e-13
-5.96202e-13
-3.41239e-13
-2.34319e-11
-2.81108e-11
0
1.72545e-11
-7.98945e-12
5.97323e-13
7.29187e-13
-5.4033e-13
2.71296e-11
1.22797e-12
-1.02226e-13
-5.89841e-13
5.90948e-13
7.06675e-12
-4.75766e-11
2.7444e-13
-2.94866e-13
-1.54804e-12
-2.22475e-11
3.53242e-11
2.08379e-11
3.19177e-12
-8.19781e-13
1.46411e-12
-4.626e-11
3.02435e-11
1.08537e-11
-3.00661e-17
-2.43242e-11
1.18188e-12
-2.12234e-11
-3.86991e-12
-1.41064e-13
1.84222e-11
0
-2.68371e-11
1.15098e-13
8.17822e-13
5.04822e-13
-4.04045e-12
-7.065e-12
1.79191e-13
-5.40811e-14
-2.68862e-12
-3.81664e-13
1.05072e-12
-4.227e-12
3.11591e-11
2.07661e-11
5.41155e-14
-2.32076e-11
1.3396e-11
-4.4673e-13
-3.6702e-14
-1.46395e-11
-1.31915e-11
4.24761e-12
-1.05626e-11
1.26869e-12
-5.20942e-13
7.13858e-14
-1.25105e-11
7.4452e-13
-7.30244e-14
-1.67561e-13
-1.4242e-13
-1.36345e-13
-2.30529e-13
-2.36247e-13
-3.56848e-13
2.10635e-11
8.04306e-12
-1.15564e-11
1.19218e-12
-3.04542e-13
2.63561e-12
2.92808e-13
0
-1.75462e-11
8.3558e-12
2.98561e-13
4.66126e-13
-3.91139e-12
-1.01969e-12
6.14976e-13
4.48697e-11
5.2447e-11
-5.90359e-13
5.88382e-13
-1.22315e-12
2.85042e-12
9.65724e-12
-1.2737e-11
5.06543e-11
1.38097e-12
-2.06876e-11
-7.95475e-14
-1.0209e-11
1.17118e-12
5.89295e-13
3.36903e-13
-5.65096e-13
-5.15094e-13
4.51285e-11
4.25051e-11
-8.0447e-14
7.28586e-13
-2.59046e-13
-2.86555e-11
5.29442e-12
2.27751e-11
-1.12221e-13
4.71461e-14
2.41283e-11
-5.85667e-11
1.2175e-11
1.10386e-13
6.50727e-13
1.19453e-12
1.52886e-11
8.51614e-13
2.77302e-11
-2.12482e-12
1.02661e-11
-1.80395e-11
5.12109e-11
1.94063e-13
2.7844e-13
1.21753e-11
1.41954e-13
-9.11693e-12
3.67664e-14
1.74217e-13
-3.20445e-13
9.05171e-12
-1.8657e-14
1.32567e-11
4.46798e-13
-2.13413e-13
-4.54987e-13
2.01375e-13
-1.2205e-13
1.46582e-13
1.21013e-13
-6.58452e-12
3.11641e-14
-5.9783e-12
1.04868e-11
1.9371e-11
-1.49769e-12
-1.46644e-12
5.87719e-13
0
-2.93392e-13
-1.47122e-12
8.95401e-13
-3.33873e-13
3.23675e-14
1.21437e-13
-6.10411e-13
3.42318e-11
-5.14027e-11
-5.91663e-13
-4.24909e-11
-5.27552e-11
-4.02879e-12
5.8806e-13
2.55005e-11
-2.87393e-11
-5.39629e-11
2.70523e-11
1.1904e-11
-5.05241e-13
-1.46921e-12
-5.90833e-13
-1.96625e-11
-3.2476e-14
-6.88371e-13
-1.88227e-11
1.18331e-12
2.22328e-11
2.05029e-11
-5.72305e-13
2.81641e-11
-1.1802e-12
9.70404e-13
-6.37563e-13
1.09673e-11
-2.38452e-11
3.7923e-11
1.80799e-11
-3.02316e-13
1.3336e-13
-5.96863e-13
-1.31677e-11
2.7118e-11
3.17665e-11
-6.69073e-14
-2.34573e-11
1.79075e-11
-2.55764e-11
2.83918e-13
-5.76403e-13
-1.13881e-11
-9.16707e-12
-4.57882e-13
9.39641e-12
1.05611e-11
-6.81322e-13
6.06749e-13
6.09577e-13
1.37064e-11
1.48953e-13
6.05093e-13
7.90902e-13
1.0069e-13
1.44112e-13
4.00205e-13
-8.86393e-12
9.44953e-12
-1.21688e-11
3.17312e-13
2.88165e-11
-2.05738e-11
1.1006e-12
-5.8696e-13
2.93901e-13
-2.11794e-11
2.93462e-13
3.94364e-13
-1.19487e-12
-3.96226e-13
3.79642e-12
-3.81856e-13
-6.13792e-13
-4.11475e-13
3.90065e-11
-1.15826e-12
-3.89725e-11
-1.58763e-11
1.13872e-11
9.1232e-13
1.69181e-13
5.86881e-13
1.4901e-12
-5.45658e-11
1.75346e-13
-5.85036e-14
-1.46942e-12
3.4908e-11
3.92304e-11
3.35171e-13
-1.05146e-11
-3.23563e-12
6.96816e-13
-2.22418e-11
6.35227e-12
-1.97899e-13
5.86907e-13
-2.8968e-12
-1.91587e-13
-2.84731e-13
-1.10501e-11
6.29267e-12
-9.62882e-11
-3.28851e-13
-1.5773e-11
-7.33658e-13
-1.76248e-11
-6.48589e-12
-4.8473e-11
-6.42058e-12
2.63211e-11
8.2028e-13
2.79986e-13
2.56202e-11
-1.33534e-11
1.48979e-13
-1.22146e-11
-1.02953e-13
-4.53801e-12
-5.37143e-13
1.43767e-14
1.0678e-13
-9.10382e-12
-1.92417e-13
3.36853e-13
-5.95802e-13
2.6233e-13
1.01937e-11
-9.2328e-12
-3.43634e-13
-9.02707e-12
-1.20427e-13
6.87662e-12
6.12942e-14
5.79058e-12
-1.05773e-11
-2.98181e-13
-6.2812e-13
-2.60685e-11
0
2.02229e-11
2.92471e-13
-3.00324e-11
2.47898e-11
1.10839e-12
2.02423e-13
1.09162e-13
6.13609e-13
3.89859e-12
0
-3.53873e-12
-4.99649e-11
1.13951e-12
2.46202e-11
9.97328e-12
-1.49309e-11
1.96221e-11
-9.20364e-13
2.2067e-12
-2.34229e-13
9.16594e-13
0
-1.17751e-12
-1.97673e-11
1.9404e-13
2.65208e-13
3.22381e-12
1.17957e-12
1.09959e-12
-1.54178e-11
-1.05792e-11
-8.77371e-13
-3.64445e-11
6.28765e-13
-1.42281e-11
8.25465e-13
-5.21831e-12
-9.88159e-14
-2.09817e-11
-9.10386e-12
1.09693e-13
-3.88277e-12
7.93546e-13
2.04236e-11
-2.62325e-11
-5.30374e-11
-9.24513e-12
-1.42772e-12
-5.66602e-11
-4.00355e-13
2.97938e-13
1.09113e-11
9.15831e-12
5.56819e-13
1.37111e-11
-6.57404e-13
6.85316e-12
1.35533e-11
-2.59612e-13
-3.88352e-14
-9.98059e-12
1.74971e-13
-7.61604e-13
-4.00666e-13
-5.26176e-14
1.02434e-11
9.07959e-12
-9.63339e-12
-1.85308e-13
-1.29651e-13
-2.85699e-11
1.49084e-12
-3.50346e-13
2.54812e-11
0
-2.02229e-11
-1.8717e-11
5.4974e-11
-5.07752e-12
1.46362e-11
-3.44296e-13
2.11478e-12
-1.84062e-12
-1.5112e-13
-4.2586e-13
-3.5453e-12
5.88759e-13
-5.23465e-11
-2.37393e-11
-6.1733e-13
1.07043e-11
-4.56855e-11
1.30819e-12
2.52407e-11
3.39653e-13
7.11257e-13
2.75253e-11
-3.58676e-12
9.70758e-13
7.31248e-14
1.11454e-11
-8.79206e-13
-3.54527e-11
-5.12675e-13
2.17018e-12
8.45998e-14
2.69032e-11
0
9.41628e-14
3.14036e-13
1.12556e-11
-1.48256e-13
-5.09855e-11
4.44893e-11
2.83625e-11
-5.07014e-14
2.09096e-11
-3.75946e-12
9.64616e-13
2.70434e-11
2.63461e-11
-1.8022e-11
1.73831e-12
3.13494e-11
3.14065e-11
0
-1.13403e-13
-6.20765e-12
1.42457e-11
9.1909e-12
4.02949e-14
-2.39267e-13
2.71978e-13
-1.03563e-11
0
4.47065e-13
6.9074e-12
-1.0186e-11
8.60287e-12
2.35297e-13
8.71117e-12
1.2865e-13
5.2191e-16
1.70366e-13
-1.1475e-11
9.92293e-14
-2.9821e-13
-9.15826e-13
2.92764e-13
-2.92877e-13
2.11041e-11
1.93029e-11
-2.61737e-11
-1.88172e-11
-8.38792e-13
9.78731e-12
-1.15472e-12
0
1.65992e-12
9.21301e-11
5.90946e-13
-1.17769e-12
-2.15297e-12
1.65375e-12
-1.02687e-11
1.93085e-13
2.69313e-11
-1.72087e-12
-4.88495e-13
-8.47417e-14
1.36624e-11
-2.48922e-11
-7.97366e-13
-1.43552e-12
1.24591e-11
-1.24315e-13
2.93096e-13
2.36375e-12
2.32827e-11
-7.99745e-13
-2.51432e-12
-2.66125e-11
5.29899e-11
1.28364e-12
3.38287e-12
-7.72844e-14
2.3889e-11
5.01842e-11
-2.38435e-11
1.1876e-11
9.82082e-13
0
2.38368e-11
-7.37236e-13
-2.70733e-11
-2.00847e-12
2.6239e-11
-1.8192e-12
6.02849e-13
2.04382e-11
1.49017e-13
4.47606e-13
-9.26623e-12
-7.93334e-13
-1.32374e-11
8.24909e-13
-6.56425e-12
-1.284e-11
8.85853e-14
6.35138e-13
9.39552e-12
-6.45891e-13
-1.29743e-13
2.84032e-13
-1.69715e-13
-1.06159e-11
1.87796e-13
3.87765e-14
-1.46395e-13
-1.34412e-11
1.15623e-11
-1.93906e-11
2.3577e-11
-2.92751e-13
-1.9914e-11
-1.17229e-12
5.84882e-13
-6.12759e-13
-2.98835e-13
-2.6593e-11
1.6291e-14
5.3175e-13
-6.13689e-13
4.27707e-11
1.50026e-13
0
1.76573e-12
-1.29496e-12
-1.42403e-12
-3.60331e-14
-1.94313e-11
0
-8.40831e-11
-3.24816e-13
-6.49107e-13
-1.6482e-12
1.69833e-11
5.18867e-11
-7.86331e-12
-7.96134e-14
1.15325e-13
0
4.78459e-11
-2.37406e-11
-8.95873e-12
-1.74798e-13
0
1.76569e-12
-5.95088e-13
7.22141e-13
4.6782e-13
-2.3452e-11
-1.46974e-13
4.99511e-13
-1.26024e-11
-1.04785e-11
-2.98826e-13
-4.18674e-12
-8.48173e-14
1.88222e-11
-2.53252e-11
-2.54783e-11
-2.23783e-13
-3.31464e-12
-1.82985e-11
8.92772e-12
3.60921e-13
6.07209e-12
1.05101e-11
-8.38505e-12
-2.91794e-14
-3.12588e-13
2.27297e-13
2.14379e-11
1.10182e-13
0
-7.25824e-12
9.77313e-12
9.02449e-13
1.37105e-13
3.4306e-15
-1.31159e-11
-4.26187e-13
1.843e-13
1.12137e-11
3.23205e-14
3.19466e-11
-2.34154e-11
2.31752e-11
2.026e-11
-5.87659e-13
-5.86412e-13
9.90639e-13
-2.98995e-13
-1.92484e-13
-9.68939e-12
9.05599e-14
3.06436e-12
6.02509e-11
-5.87545e-13
5.1193e-11
5.16198e-11
3.59797e-11
-1.84917e-11
9.66923e-12
-9.4625e-12
-5.86795e-13
-3.68475e-11
-3.04191e-11
3.87008e-13
-1.4127e-11
-4.11034e-11
4.22993e-11
7.27731e-12
-1.23724e-11
-1.68653e-11
5.87665e-13
-5.8842e-13
-2.85219e-11
1.13572e-11
1.40491e-11
7.91676e-12
2.63965e-11
-4.31008e-13
1.13837e-11
-9.43221e-13
-3.59904e-13
1.31157e-13
-2.99458e-14
-3.30749e-12
-1.31194e-11
2.98972e-13
1.01687e-11
3.03947e-11
-1.91347e-11
2.72083e-11
2.62294e-11
2.89814e-11
2.34962e-11
-3.12983e-11
1.68698e-13
3.57769e-13
-8.49708e-13
-1.93219e-13
-4.11604e-14
-1.3843e-13
1.86274e-13
-7.2073e-13
8.09455e-13
-7.46461e-13
-9.40128e-12
-1.74862e-11
-1.35073e-11
-8.24972e-14
-2.34646e-13
1.27542e-13
3.93317e-13
1.16441e-11
2.6143e-13
1.38766e-11
-1.5309e-14
-1.374e-11
-2.5389e-11
-2.25657e-11
1.87558e-11
8.93643e-13
8.91953e-13
-5.94261e-13
1.49546e-12
2.65528e-12
-9.22876e-15
-3.3702e-13
1.22409e-12
-4.77948e-11
-1.20508e-11
4.06001e-11
4.15705e-11
-1.08886e-10
1.58298e-11
9.45293e-12
8.81133e-12
2.9697e-13
-2.14615e-11
3.07146e-11
-5.77474e-13
1.63683e-12
1.96503e-11
4.37286e-11
3.00609e-13
1.22527e-11
4.25779e-13
0
5.55796e-11
5.7163e-12
3.58612e-13
4.91355e-13
-7.43422e-12
5.51699e-13
-2.8183e-11
-1.59224e-14
1.91639e-12
-1.18867e-12
-6.06314e-11
9.10413e-13
1.84765e-12
9.89194e-12
5.98091e-13
-3.88885e-11
-3.08823e-11
-2.71927e-11
2.67783e-11
1.28925e-11
-1.01009e-11
-2.11024e-11
-1.67772e-13
-9.54799e-12
-1.45435e-13
9.59004e-15
-1.11805e-11
9.4283e-12
-4.69445e-13
9.79723e-12
-5.60818e-13
-1.11649e-11
-1.49232e-13
1.48886e-13
6.65907e-14
-1.36692e-11
2.09694e-14
-4.44862e-12
-1.23376e-11
1.30553e-11
1.26373e-11
9.76076e-12
1.06992e-11
9.30039e-13
-2.02395e-11
5.77936e-11
-1.00886e-12
-1.92806e-11
1.69153e-11
-5.92934e-13
-6.81739e-12
-2.26046e-11
-1.18041e-11
4.35373e-14
5.94406e-13
8.20101e-12
-1.17873e-12
-3.54552e-12
-5.91079e-13
1.86478e-13
-5.70357e-11
3.2337e-12
-9.61497e-12
9.83077e-12
-4.40505e-13
-3.66981e-13
8.1388e-13
4.34235e-13
-7.46929e-12
-1.11728e-11
5.71361e-13
-4.18213e-13
-1.1096e-11
2.9173e-13
1.91462e-12
-5.91114e-13
-6.34641e-12
2.37366e-11
-7.3709e-12
2.05305e-12
0
-7.71021e-12
1.64466e-13
4.87824e-12
-1.42473e-11
-7.42621e-12
-1.00889e-12
-5.316e-13
6.44549e-12
-1.45235e-12
5.81331e-13
2.33361e-11
-1.14534e-11
6.65145e-13
-5.93058e-13
-3.58099e-11
2.63941e-11
-2.61698e-11
1.49111e-11
-1.28667e-11
5.76854e-13
2.81395e-11
-2.27361e-13
1.22915e-11
5.92908e-13
1.70541e-11
3.42397e-12
-6.33873e-11
-1.16408e-12
1.74496e-12
4.59938e-11
-2.42884e-13
1.01065e-12
1.28029e-11
1.48713e-12
3.35698e-11
1.96782e-13
2.63083e-11
-2.66958e-11
-1.39237e-11
-2.15873e-11
0
1.18986e-11
-1.20758e-11
2.85039e-14
6.29192e-12
-1.22508e-13
1.0852e-11
7.49695e-14
2.28859e-13
-1.38356e-12
-1.33186e-11
2.0843e-12
1.09869e-11
1.81019e-11
1.34834e-11
-3.70046e-12
-9.45605e-14
1.47987e-13
-5.92067e-13
-1.16353e-11
7.6087e-13
1.20653e-12
0
3.8501e-12
-1.50662e-11
8.70887e-14
-5.90751e-13
1.1516e-12
-1.67764e-12
6.79785e-12
-4.80793e-12
9.64309e-12
6.37132e-12
3.08344e-13
-8.84047e-13
-2.18469e-11
0
-8.5733e-13
0
5.87926e-13
1.39182e-13
-9.62955e-12
-9.91709e-12
6.06433e-12
2.93731e-13
5.87089e-13
-2.38877e-11
2.51872e-11
2.00216e-11
-1.46492e-12
5.20356e-13
2.95991e-13
-1.4798e-13
-1.35818e-11
-2.1894e-15
6.39852e-12
-2.71952e-12
1.11333e-13
-4.16629e-12
1.91183e-13
-7.75406e-12
-1.19851e-11
-1.47981e-13
2.85636e-12
2.11945e-11
4.67621e-12
3.21274e-12
-6.53249e-12
-1.92357e-12
1.37216e-12
8.56601e-12
1.47966e-13
-5.92074e-13
1.214e-12
2.91097e-11
-7.18205e-12
2.43973e-11
0
-9.44843e-13
-8.63726e-13
3.70326e-13
-4.44021e-13
7.83164e-12
2.95586e-13
1.92949e-11
-5.86546e-13
2.52055e-13
-3.36704e-13
4.3883e-11
-2.78389e-11
-2.94933e-13
-1.55596e-12
-2.96747e-13
-7.26961e-12
-8.8635e-13
1.35962e-11
2.94883e-13
-1.22095e-11
2.15352e-11
-3.60739e-12
-4.73537e-12
4.45155e-13
1.67329e-13
-1.29392e-13
-3.48886e-13
0
-9.27232e-12
4.43925e-13
-9.02791e-12
1.48151e-13
-4.45082e-13
2.96927e-13
-1.48202e-13
2.96244e-13
1.2729e-11
1.47935e-13
4.88148e-12
1.21291e-11
0
-2.23515e-11
-1.05167e-11
-1.14111e-11
-1.18496e-12
-1.19863e-11
1.286e-11
9.45504e-12
-7.79236e-12
-1.16732e-11
2.02396e-11
4.50685e-12
1.61294e-11
1.15528e-11
-9.32441e-12
0
-4.02032e-12
-4.68379e-12
1.47659e-13
5.79584e-12
-4.42581e-13
-5.27433e-12
-9.45932e-12
0
-9.615e-12
-2.95463e-13
-2.02816e-12
-9.41538e-12
-9.32618e-12
-1.13987e-11
-4.65372e-12
-1.54174e-11
-1.47739e-13
1.12419e-11
5.91588e-13
-9.89855e-12
-6.97152e-12
0
1.27564e-11
1.69084e-11
4.44109e-12
3.3965e-12
-4.43309e-13
1.1832e-12
1.22754e-11
-1.47734e-13
-7.56071e-12
-1.25686e-11
-9.49381e-12
7.41631e-13
-2.62759e-12
-1.55054e-12
-1.12305e-11
2.95807e-13
2.9585e-13
-2.55533e-11
-1.10565e-11
1.52032e-11
4.77581e-12
-1.29178e-11
-6.83298e-12
7.67131e-12
-1.00456e-11
0
-1.15451e-11
3.39839e-12
3.20817e-12
-4.09212e-12
-2.51038e-12
-2.21514e-12
-4.68437e-12
4.38915e-12
-2.77057e-12
9.76928e-12
2.96229e-13
-1.2282e-11
-8.27424e-12
-9.30578e-12
1.30364e-11
1.30029e-11
-1.47743e-13
1.30068e-11
1.47977e-11
-4.44366e-13
1.21514e-11
0
2.66411e-12
-1.47926e-13
-1.09457e-11
-1.05013e-11
-8.87535e-13
-1.06194e-11
2.78832e-11
-2.07477e-12
8.2909e-12
-5.9202e-13
1.47947e-13
4.28929e-12
-7.39478e-13
-1.47896e-13
1.4791e-13
-5.91807e-13
-5.92028e-13
-1.33246e-12
-1.21362e-11
-1.31663e-11
7.39324e-13
1.47831e-13
0
-1.15314e-11
1.47835e-13
1.47871e-13
9.46805e-12
0
-1.65693e-11
-1.06459e-11
-2.95575e-13
-9.01463e-12
-9.31291e-12
-2.18783e-11
1.47788e-13
2.15778e-11
2.95725e-13
0
8.57785e-12
-9.90374e-12
-1.47768e-13
3.84333e-12
4.43772e-13
-1.4497e-11
0
4.43368e-13
-1.47829e-13
1.03529e-12
-1.21258e-11
1.41899e-11
-7.3895e-13
-2.95797e-13
-1.28807e-11
4.44175e-13
-1.4793e-13
-1.0348e-11
2.2175e-11
4.43658e-12
-1.47875e-13
1.13812e-11
1.19706e-11
2.95791e-13
1.48054e-13
0
9.17168e-12
-4.43485e-13
0
9.31694e-12
1.47893e-13
1.4781e-13
2.54127e-11
-1.47804e-13
0
-1.47931e-13
-9.75757e-12
-1.47787e-13
1.24179e-11
0
-9.91191e-12
-1.47854e-13
1.47768e-13
0
-1.30083e-11
-1.33045e-12
1.44834e-11
-7.38965e-13
-7.39345e-13
-2.95898e-13
0
0
-4.43568e-13
-1.0791e-11
-1.47833e-13
1.47834e-13
-1.50787e-11
-4.43589e-13
-1.00598e-11
-4.44018e-13
0
4.4399e-13
4.43817e-13
1.47899e-13
-1.47888e-13
1.29569e-13
3.23532e-12
-3.71919e-14
1.11035e-13
2.96102e-13
9.32211e-12
5.91782e-13
-9.17079e-12
1.47896e-13
1.331e-12
-5.91561e-13
0
9.76274e-12
8.87693e-13
1.47972e-13
-1.47943e-13
0
7.39417e-13
-9.16791e-12
1.00553e-11
-6.80216e-12
-7.54157e-12
-4.43667e-13
-4.43754e-13
0
9.76204e-12
-7.39395e-13
2.95708e-13
-9.61065e-12
-4.43625e-13
-1.18302e-11
-9.90682e-12
9.01958e-12
9.02101e-12
2.95828e-13
9.90823e-12
7.39291e-13
-2.95695e-13
1.25695e-11
8.87512e-12
4.14183e-12
4.58454e-12
1.21247e-11
-7.3935e-13
-7.39462e-13
-8.87236e-13
9.61044e-12
1.00542e-11
2.95813e-13
-2.3379e-11
-1.71649e-11
4.43772e-13
5.91512e-13
-2.95741e-13
-1.47885e-12
1.47872e-13
-1.47851e-13
-2.95707e-13
4.43713e-13
0
-1.03582e-12
-2.95848e-13
-1.07951e-11
0
1.24224e-11
-1.47882e-13
1.28633e-11
1.00531e-11
1.47869e-13
1.34603e-11
1.28692e-11
2.54368e-11
-5.9145e-13
1.00553e-11
2.95791e-13
1.47907e-13
0
-2.95691e-13
1.21235e-11
-4.43613e-13
-1.34567e-11
-1.47862e-13
0
0
-9.9105e-12
-1.47939e-13
1.25723e-11
1.13865e-11
5.91452e-13
-1.34559e-11
-1.62656e-12
-5.9148e-13
1.47885e-13
-7.39588e-13
-3.69869e-12
1.47964e-13
0
1.4791e-12
-1.47889e-13
0
1.03703e-11
1.34941e-12
1.18332e-11
-1.52384e-11
-2.95943e-13
-5.91687e-13
1.03536e-12
1.47892e-13
-2.95763e-13
2.21818e-12
2.9576e-13
-2.9577e-13
5.91586e-13
0
1.47926e-13
1.27199e-11
1.34582e-11
-8.87275e-13
-7.39376e-13
1.02036e-11
4.58427e-12
-8.87279e-13
1.47885e-13
-9.46547e-12
2.95821e-13
9.61257e-12
9.61188e-12
-4.43609e-13
-7.39389e-13
9.31713e-12
-3.10576e-12
-9.90826e-12
-1.22739e-11
-4.4365e-13
2.95786e-13
2.07019e-12
4.43596e-13
-2.95742e-13
-1.47895e-13
1.3165e-11
1.42008e-11
1.47905e-13
-2.95768e-13
-8.87265e-13
-7.39405e-13
1.22727e-11
-4.43588e-13
7.39387e-13
2.95827e-13
1.03565e-12
-2.95908e-13