/*--------------------------------*- C++ -*----------------------------------*\
  =========                 |
  \\      /  F ield         | OpenFOAM: The Open Source CFD Toolbox
   \\    /   O peration     | Website:  https://openfoam.org
    \\  /    A nd           | Version:  10
     \\/     M anipulation  |
\*---------------------------------------------------------------------------*/
FoamFile
{
    format      ascii;
    class       volScalarField;
    location    "0.4";
    object      gradTx;
}
// * * * * * * * * * * * * * * * * * * * * * * * * * * * * * * * * * * * * * //

dimensions      [0 -1 0 1 0 0 0];

internalField   nonuniform List<scalar> 
47104
(
1.3959e-13
-6.19299e-15
5.86824e-13
5.51545e-13
-1.94693e-13
1.55231e-13
2.56346e-13
5.25537e-14
-2.57264e-15
-1.39584e-13
9.32208e-15
-9.24761e-14
1.55026e-13
-5.27463e-13
1.36972e-14
1.058e-11
2.30008e-13
-9.83026e-12
-7.95982e-12
-7.46223e-12
-1.39536e-13
9.21406e-14
5.29379e-12
1.93937e-14
-5.90722e-12
1.75932e-13
6.35716e-13
2.23745e-13
6.41274e-13
2.88441e-13
-6.55191e-12
-6.95433e-12
-6.4076e-13
8.74466e-14
-1.24265e-13
1.04888e-13
-5.54172e-13
-1.26649e-13
7.75101e-13
1.57889e-13
1.4855e-13
5.42096e-14
-3.97687e-15
-1.50007e-13
-1.59357e-14
-2.06615e-13
4.00758e-14
-1.49982e-13
1.7877e-13
0
0
8.5555e-13
1.64541e-13
-8.74391e-14
1.26181e-13
3.43714e-12
7.84815e-14
3.39584e-12
-3.53781e-13
-7.42725e-12
6.83159e-12
4.6477e-13
-7.0172e-12
3.59977e-13
-5.07876e-13
6.67922e-15
4.82651e-13
2.87952e-12
-1.45578e-13
-2.8161e-12
4.56183e-13
-2.05149e-13
-4.4075e-13
-1.0157e-11
5.61341e-14
1.03258e-11
-1.40107e-13
-4.43558e-14
7.04264e-13
7.35228e-13
-1.39766e-13
1.79139e-13
5.63088e-13
-1.59196e-13
-5.49235e-13
1.03511e-13
7.89533e-12
9.41563e-14
2.52509e-13
8.18933e-12
1.39609e-13
4.66196e-13
-1.21779e-13
-3.50837e-13
-7.92265e-12
1.13143e-14
7.27038e-12
-7.34473e-12
6.0456e-13
7.166e-12
-1.49214e-13
-2.17131e-13
-2.76867e-12
8.59803e-14
2.82477e-12
-2.09818e-14
1.0405e-13
-2.00713e-13
9.66944e-14
4.47613e-13
-1.49336e-13
-1.29358e-11
-6.30286e-12
1.30598e-11
6.55493e-12
1.05452e-11
7.15185e-12
-1.92696e-11
-7.06563e-12
8.51167e-12
6.42018e-12
9.57662e-12
-6.47392e-12
1.16772e-12
-3.50106e-13
-1.62804e-11
3.14423e-11
-1.50859e-11
0
1.493e-13
1.49207e-13
-3.21508e-12
-1.18156e-13
0
-1.97398e-11
2.02696e-11
-3.18502e-14
-1.35295e-11
-8.18712e-12
0
-1.49167e-13
2.72964e-12
2.1768e-12
-2.34314e-12
1.66199e-13
-1.33374e-11
1.36292e-11
-6.41436e-13
-8.52523e-12
-8.05458e-12
6.8621e-12
7.59094e-12
5.59002e-13
6.53321e-13
1.01872e-11
-1.04168e-11
1.87291e-11
-1.84988e-11
-1.03576e-11
2.23745e-12
1.71617e-11
1.15905e-12
-1.23688e-11
-1.45963e-11
1.49942e-11
4.21874e-14
-4.96942e-14
1.87375e-11
-1.38328e-12
1.56675e-11
0
-2.61892e-13
2.11527e-11
-2.04342e-11
4.99392e-13
9.52966e-14
-1.40128e-12
2.58775e-13
3.06763e-12
0
7.16907e-12
7.18742e-12
-7.21075e-12
-7.12467e-12
-6.43975e-13
-1.86549e-13
-6.39396e-13
4.52836e-13
-6.12411e-12
-7.01918e-12
-1.4921e-13
1.67594e-13
-4.54816e-13
4.39411e-13
-1.06838e-11
-7.59623e-12
1.09919e-11
7.14727e-12
-2.29462e-13
-2.98422e-13
1.49189e-13
9.13881e-12
7.15348e-12
-9.32701e-12
-6.81734e-12
-6.26657e-14
-1.48531e-13
1.49571e-13
-1.48758e-13
0
4.7761e-12
-1.41296e-11
5.63568e-12
-1.80144e-11
1.76726e-11
-5.92946e-13
-4.15143e-13
5.19459e-13
1.77182e-13
-5.82035e-12
1.02882e-11
6.75825e-12
8.44879e-13
-3.5239e-13
1.93828e-13
-6.75969e-13
7.92018e-13
5.43652e-14
5.51413e-13
3.57832e-12
-5.06527e-12
1.88061e-11
1.27803e-11
-7.94398e-08
-7.46485e-09
1.70027e-09
2.22746e-08
3.12996e-09
-4.0711e-13
-2.68152e-12
-2.98048e-13
3.61196e-13
3.67289e-11
-1.11403e-07
8.29932e-09
-1.89258e-09
-2.2311e-08
3.83361e-09
-2.13336e-11
0
2.98074e-13
1.13052e-13
4.32902e-11
-1.14421e-07
8.81688e-09
-2.01388e-09
-2.33963e-08
3.8879e-09
2.60897e-13
-2.98044e-12
-3.27837e-12
6.06825e-12
5.56925e-11
-9.7888e-08
6.35161e-09
-1.42064e-09
-1.78546e-08
3.79332e-09
-9.78958e-14
0
-2.68484e-12
4.76138e-12
-1.88147e-12
-1.06639e-09
-1.83251e-10
3.42522e-11
5.32912e-10
-1.48665e-10
2.08849e-11
-4.47381e-13
1.49293e-13
1.3723e-11
-1.27957e-11
-2.04979e-11
1.94903e-11
1.3325e-11
-1.31374e-11
-9.10093e-14
-5.33974e-13
5.82166e-12
-8.35432e-12
9.54853e-12
8.42865e-12
-1.02407e-11
4.5148e-13
-6.65502e-13
-4.1339e-14
3.09877e-13
1.49144e-13
0
-7.29361e-12
-6.14256e-12
-7.2391e-14
-1.52626e-12
-1.02332e-11
-2.86426e-13
1.36636e-11
-1.64375e-14
-3.35915e-12
-1.48823e-13
1.48615e-13
4.46779e-14
-7.99336e-12
-1.69478e-11
-5.5286e-12
2.16311e-12
1.20396e-11
2.00328e-11
-9.46039e-13
-5.94374e-12
2.95267e-13
1.14958e-11
-1.54407e-09
-7.11639e-08
-2.93653e-10
7.4027e-10
4.11869e-09
1.70023e-07
5.89015e-08
3.69065e-12
-2.7871e-12
4.70701e-09
1.66488e-05
-0.591544
-0.0034442
0.000217309
0.00928684
0.454755
7.00479e-07
-1.0708e-11
1.02547e-12
4.58901e-09
1.71452e-05
-0.900874
-0.0117309
0.000695803
0.0332306
0.595661
5.95548e-07
-2.63678e-12
9.23014e-12
4.57722e-09
1.7268e-05
-0.905361
-0.0122293
0.000730567
0.0341238
0.597861
5.89857e-07
2.78336e-12
3.81509e-12
4.65278e-09
1.70202e-05
-0.894342
-0.0111451
0.000656611
0.0319772
0.591547
6.15383e-07
8.80204e-13
-9.30462e-12
2.93819e-09
1.73847e-05
0.0917065
-0.00326483
-0.00381446
-0.00425885
-0.0927883
2.1071e-07
3.10079e-12
1.48658e-13
4.93963e-13
3.05053e-09
5.59798e-09
1.34283e-10
-3.70898e-11
-7.9626e-10
-7.21757e-09
-2.18033e-11
2.52686e-12
-5.95366e-13
8.08009e-12
3.98727e-13
-5.88555e-13
-1.24772e-13
-7.4603e-12
-6.12993e-14
9.0878e-12
1.72316e-13
-8.78216e-12
-7.43326e-13
-2.85815e-13
2.57445e-13
4.59281e-14
2.21521e-13
6.34196e-14
-7.62429e-12
2.91905e-13
7.71211e-12
0
1.45423e-11
1.13504e-11
-5.9017e-13
2.64849e-10
1.99791e-10
-3.30765e-11
-5.25539e-10
5.3794e-12
1.42651e-11
-3.85748e-12
1.30765e-11
-1.05159e-10
-1.07984e-06
0.0133279
0.000345317
7.95292e-05
-0.000558578
0.000574716
3.6634e-07
-1.42512e-11
-2.6126e-12
-1.9115e-08
-0.473979
0.000196777
2.17709e-12
-5.49375e-12
-7.25578e-08
-0.57679
0.000281042
7.80636e-12
-6.79593e-12
-6.87729e-08
-0.577857
0.000281596
2.21185e-11
-8.13224e-12
-7.93796e-08
-0.575037
0.000278804
3.77388e-12
3.08695e-12
-2.44322e-10
0.0171819
-1.97813e-05
5.73076e-12
-2.67164e-12
8.68082e-15
7.43416e-09
3.29564e-06
2.8879e-07
-6.01334e-08
-1.4256e-06
7.13938e-07
1.40784e-10
-2.37461e-12
-1.4865e-13
5.94421e-13
1.26818e-13
-7.80036e-12
1.96648e-13
1.77758e-11
1.08455e-14
-1.92188e-12
-1.49179e-13
-9.21743e-12
2.23059e-12
4.39893e-15
-2.10691e-12
-1.30731e-13
1.06555e-13
-8.64989e-14
6.2162e-14
-5.24711e-13
2.00402e-13
4.46039e-13
6.53579e-12
3.30984e-11
-1.75174e-11
1.25203e-10
2.71723e-10
-3.97558e-11
-7.15334e-10
3.09923e-11
1.70043e-12
-2.97023e-12
-3.08779e-12
-1.17154e-10
-1.13211e-06
0.0165476
0.000438231
6.23237e-05
-0.000820552
0.000650042
3.78559e-07
1.33792e-11
-2.75574e-12
-7.34184e-09
-0.487219
0.000202502
-6.09102e-12
-7.7939e-12
-7.80967e-08
-0.60204
0.000321667
6.6385e-12
-1.87659e-12
-7.3185e-08
-0.603537
0.000322778
3.31931e-12
-5.80495e-12
-7.69666e-08
-0.597795
0.000316183
1.58084e-11
-1.00037e-11
3.80582e-10
-0.00910228
-2.09104e-05
-3.382e-12
-9.0622e-12
-9.38565e-12
7.77753e-09
3.83535e-06
4.18462e-07
-9.16968e-08
-2.37306e-06
4.30121e-07
1.06441e-10
6.09094e-12
1.48683e-13
7.98043e-14
8.47388e-12
-7.6897e-14
-8.55908e-12
-4.48995e-14
1.88564e-13
8.01981e-12
3.86821e-15
-8.03034e-12
-1.63671e-12
-7.17907e-13
6.50207e-13
-6.44462e-13
9.04895e-14
2.29024e-13
1.25909e-13
-1.07981e-13
1.70655e-13
-1.48767e-13
2.08146e-12
-2.71578e-11
2.44022e-11
4.02103e-11
2.81055e-10
-4.41945e-11
-7.14563e-10
2.9802e-11
-2.89439e-13
1.04047e-11
1.48662e-11
-1.07905e-10
-1.13473e-06
0.0166179
0.000431122
4.29999e-05
-0.000851402
0.000654064
3.802e-07
-2.79582e-12
-5.51632e-12
-3.79816e-09
-0.487603
0.000202768
1.1609e-12
-5.48761e-12
-7.28052e-08
-0.603093
0.00032289
-3.6095e-12
1.02536e-11
-6.68956e-08
-0.604765
0.000324055
4.47587e-12
2.03285e-12
-8.40224e-08
-0.600856
0.000317266
5.80476e-13
-2.94484e-13
1.64062e-09
0.0180936
-2.09997e-05
1.88377e-11
-4.60939e-12
1.76723e-11
7.70834e-09
3.8834e-06
4.34942e-07
-7.80204e-08
-1.78354e-06
8.27227e-07
1.32989e-10
5.65021e-12
-9.52097e-12
-2.47349e-13
1.86712e-12
8.1865e-12
1.57635e-11
-8.20305e-12
-1.15544e-11
1.72756e-13
3.38385e-12
-1.48797e-13
-1.44393e-11
1.33366e-13
1.43044e-11
1.58524e-13
8.74262e-12
-7.58724e-12
-8.07462e-12
7.16668e-12
5.85773e-13
5.9536e-13
2.975e-13
-2.24436e-12
3.2757e-12
3.16342e-11
2.79276e-10
-5.48921e-11
-6.85273e-10
1.11799e-11
6.31399e-14
2.97435e-13
-2.35686e-12
-1.2846e-10
-1.13084e-06
0.0166301
0.00043023
4.03854e-05
-0.000855098
0.000653965
3.79139e-07
3.82801e-12
-2.03431e-12
-6.21817e-08
0.0669286
0.000202872
1.16163e-11
-3.61311e-12
-7.31623e-08
-0.60239
0.000323007
5.20125e-12
-3.17935e-12
-6.66042e-08
-0.604857
0.000324174
2.74515e-12
9.58922e-12
-8.34038e-08
-0.601078
0.000317373
3.9207e-12
3.68323e-12
1.637e-09
0.0181064
-2.10114e-05
2.94504e-12
-6.69473e-12
-1.7203e-11
7.65653e-09
3.88685e-06
4.35094e-07
-8.4761e-08
-1.92217e-06
8.05177e-07
1.16788e-10
2.97536e-13
0
-7.85654e-12
-4.02555e-14
1.62985e-11
-3.04051e-14
-8.11152e-12
-1.47063e-13
-3.53795e-14
1.52541e-15
0
2.38246e-12
-3.44872e-13
-3.0545e-12
-5.10475e-12
-2.66941e-13
4.94027e-12
-1.18177e-13
-1.61298e-13
8.56291e-13
1.48897e-13
-5.65404e-12
7.5538e-14
5.95698e-13
9.89305e-11
2.6984e-10
-4.10835e-11
-7.4591e-10
2.33668e-11
3.81602e-11
-2.38042e-12
-7.36899e-12
2.74925e-11
-1.13193e-06
0.0165931
0.000428873
4.67885e-05
-0.000840789
0.000652131
3.77708e-07
-3.09379e-12
0
-5.69122e-08
0.116737
0.000203042
4.36127e-13
-6.36855e-12
-7.7501e-08
-0.601989
0.000322239
4.91985e-12
-1.23027e-11
-7.11167e-08
-0.604365
0.000323359
1.46151e-11
-5.09111e-12
-8.68757e-08
-0.600658
0.000316738
2.61689e-12
-2.21127e-12
1.65005e-09
0.0181006
-2.09831e-05
-6.33571e-12
2.82773e-12
1.77011e-14
7.63893e-09
3.84821e-06
4.18917e-07
-9.11497e-08
-2.37375e-06
4.28665e-07
1.36733e-10
-1.48823e-13
-1.48892e-13
-2.57136e-14
6.52834e-13
-5.25163e-12
-5.95545e-13
4.81786e-12
-1.78933e-13
2.15288e-13
-4.73197e-13
-2.9785e-13
-1.48928e-13
-5.07323e-14
-8.734e-12
-1.17515e-13
8.70374e-12
1.00969e-13
-2.30589e-14
9.89253e-12
-1.48014e-13
-9.82993e-12
1.05657e-11
1.34799e-11
1.78686e-12
-2.84139e-10
-1.43109e-11
-3.92977e-12
6.66059e-12
2.51228e-12
1.44693e-11
-2.9765e-13
1.2682e-11
-1.01701e-10
-1.12306e-06
0.0141052
0.000334798
4.42493e-05
-0.000630833
0.000617277
3.71171e-07
1.2828e-11
1.35538e-11
1.54793e-08
-0.479194
0.000166932
7.72214e-12
1.1614e-12
1.04412e-08
-0.58545
0.000195048
1.4514e-13
1.39378e-11
1.55224e-08
-0.586763
0.000195044
-2.90286e-13
-2.62411e-12
-2.12402e-09
-0.583912
0.000197278
2.47707e-12
-1.03274e-11
1.2511e-09
0.0175215
-1.89005e-05
3.09686e-12
-4.16831e-12
-7.1807e-13
6.80965e-09
2.75638e-06
2.0915e-07
-3.77037e-08
-8.77918e-07
6.50553e-07
1.35565e-10
4.466e-13
-1.4893e-13
2.42374e-12
9.60522e-12
-1.90059e-12
-9.79707e-12
-1.12688e-11
-9.78989e-12
1.13059e-11
1.00163e-11
1.48962e-13
-1.48929e-13
-1.83162e-13
7.5725e-12
-3.26396e-13
-9.86001e-13
7.35757e-13
-7.70127e-12
4.8886e-13
9.48429e-13
-4.46866e-13
1.48808e-13
-6.10581e-13
-1.51812e-11
1.51486e-11
9.28672e-14
2.94465e-13
2.46366e-13
-2.03252e-11
3.30345e-11
-7.14426e-12
-3.09677e-12
-2.30214e-11
-2.59081e-08
3.14531e-07
8.62138e-09
-1.59818e-09
-1.69375e-08
-1.69647e-06
4.37451e-09
-2.2118e-12
1.45742e-13
2.47273e-11
-4.13401e-05
-1.38885e-07
2.9141e-13
-2.61359e-12
5.28762e-11
-4.2653e-05
-1.45507e-07
8.99897e-12
1.45216e-13
2.49522e-11
-4.03218e-05
-1.45963e-07
1.4515e-13
1.02061e-11
4.94825e-11
-4.26309e-05
-1.43977e-07
-1.53006e-11
0
-5.67897e-11
-3.709e-05
-3.68309e-09
4.12944e-12
-2.67997e-12
4.0604e-12
6.27295e-11
-1.34615e-09
-1.07348e-10
2.98631e-11
3.61782e-10
-8.14262e-10
-2.2993e-12
-1.48875e-13
4.46835e-13
-5.58266e-13
8.72281e-12
-5.7893e-12
-9.13997e-12
6.79085e-12
-5.2956e-14
-1.0357e-14
6.98085e-14
-1.48971e-13
-3.57397e-12
-9.98627e-12
-6.85649e-12
3.30687e-13
3.91258e-13
-1.04043e-12
-6.07222e-13
1.20035e-13
6.50354e-14
0
-1.74082e-11
-1.16538e-11
1.42955e-11
-1.40006e-11
1.39413e-11
-1.45396e-11
-1.47338e-11
1.50032e-11
2.77956e-13
-1.93467e-12
-1.47353e-13
-1.6366e-11
-1.82091e-11
-3.64561e-11
5.21265e-13
-4.02245e-11
-1.18096e-12
4.94254e-13
2.54019e-11
-1.42924e-11
3.63554e-12
2.23948e-11
-2.98427e-11
-9.43848e-13
0
5.79035e-13
3.00052e-13
-1.41564e-11
-3.6573e-13
0
-3.32981e-12
7.07037e-12
1.00768e-13
2.97491e-11
-5.21022e-12
5.23715e-12
4.17136e-12
-5.71398e-12
-3.64231e-13
-9.59796e-12
1.16482e-11
1.04682e-11
1.43545e-13
8.04253e-13
-1.63599e-11
1.48876e-13
-4.37038e-13
1.02087e-12
-1.36491e-11
1.34977e-11
-1.5765e-11
1.56631e-11
-1.78527e-11
1.86372e-11
6.25183e-12
-8.19161e-12
-1.09154e-11
1.60931e-12
1.1381e-11
6.84872e-12
5.25839e-14
-1.02043e-11
-7.12454e-12
1.01885e-11
7.4479e-12
-9.08305e-12
7.18888e-12
9.10402e-12
-1.59793e-11
-1.03195e-13
1.51741e-12
3.98925e-13
6.94299e-12
-1.64933e-13
2.97875e-13
2.52925e-12
-2.07605e-11
1.57787e-11
1.99273e-12
-1.66345e-12
-1.99159e-11
1.97767e-11
-1.17674e-12
4.0865e-13
-1.48805e-11
1.4729e-13
3.44441e-13
-2.60682e-13
-5.79757e-13
-5.8972e-13
7.48187e-13
1.26364e-12
2.89588e-11
-5.57076e-12
-1.66434e-11
-1.45264e-13
-2.26433e-11
3.1604e-11
2.90666e-12
-9.15085e-12
-1.48879e-11
-1.53474e-11
-4.10336e-14
-2.35829e-11
2.89056e-13
1.44554e-13
-1.68789e-11
2.30842e-11
-6.60374e-13
-2.02354e-12
-1.11882e-11
-1.96305e-11
2.9051e-11
-7.79969e-12
-1.35131e-11
1.62091e-12
-1.28757e-11
2.99558e-11
-3.01028e-11
1.47352e-13
1.20566e-11
8.82891e-12
1.05113e-12
5.28962e-12
-4.82326e-14
-1.85011e-11
-1.51308e-12
8.78937e-13
1.8133e-11
-1.17583e-11
2.97845e-13
3.02649e-13
8.00622e-13
3.78181e-13
-1.32241e-12
-6.77842e-13
8.62392e-12
-9.49614e-15
-8.63616e-12
8.93643e-13
-5.9558e-13
1.70599e-13
3.34956e-13
-8.85539e-14
-1.29349e-13
7.18557e-12
-7.30131e-12
-7.32973e-12
7.7107e-12
0
1.4877e-13
-2.38324e-14
5.95492e-13
1.53473e-11
-3.47195e-11
1.89174e-11
3.61412e-13
0
2.90412e-13
-7.43998e-13
-3.97642e-12
-6.90692e-13
-1.08978e-11
4.06709e-11
3.48038e-11
-5.84336e-13
-3.83235e-11
1.92185e-12
5.67436e-13
1.47274e-13
1.19092e-11
9.23319e-12
-1.33967e-11
-2.68951e-12
-1.82985e-11
-2.74554e-12
-9.72242e-13
4.59434e-13
7.69378e-12
-9.68115e-12
-7.22565e-13
6.54879e-13
2.89683e-11
5.8731e-13
-1.30052e-12
2.90557e-13
-6.8471e-12
-1.34915e-11
2.11521e-11
-2.61464e-12
1.48805e-11
2.3006e-11
-4.91086e-11
1.13479e-13
5.00884e-12
0
-7.84729e-15
-3.02036e-13
1.34344e-11
9.44115e-12
-2.28781e-11
1.36966e-11
-1.37637e-11
-5.89782e-13
-1.60737e-11
-1.4891e-13
1.08875e-11
1.06439e-11
-2.18382e-11
-1.03493e-11
1.05542e-11
-2.16164e-13
3.127e-13
-1.04365e-12
-1.04252e-12
5.95574e-13
7.27177e-13
-2.14125e-13
2.61702e-13
-1.27068e-15
-6.48003e-14
-5.5049e-14
-6.72584e-12
-6.02533e-12
5.95729e-13
3.2727e-12
-1.46917e-11
1.435e-11
-3.53171e-13
-4.3602e-13
-2.65379e-13
2.45004e-13
2.94195e-13
2.0772e-11
-3.12482e-12
-1.47291e-12
-3.18127e-13
-1.07596e-11
5.15969e-11
-1.05836e-12
-9.70832e-13
1.29502e-12
2.67616e-11
-1.483e-11
-4.71325e-12
-1.52549e-11
5.92064e-12
-2.49187e-11
1.45346e-13
-3.77696e-12
-9.39635e-12
-8.61089e-12
1.00564e-12
-6.00689e-12
2.60195e-12
-2.89142e-13
1.96669e-14
3.86948e-12
3.74319e-12
-5.7823e-13
0
-7.48264e-15
-4.33412e-11
-8.97159e-12
4.64904e-12
-1.47359e-13
-5.67658e-12
1.58285e-11
-7.24547e-12
-8.83896e-13
4.46455e-13
2.74239e-13
1.38973e-11
5.55993e-12
-1.97369e-11
-2.84263e-13
-4.29103e-13
1.55555e-12
2.06383e-13
2.23245e-12
1.4891e-13
1.42527e-13
-3.53824e-14
8.72437e-14
-1.61133e-13
8.90724e-14
-1.75911e-14
1.60813e-13
-9.97818e-12
-9.97861e-12
0
2.19879e-13
-3.42015e-13
1.29343e-14
2.52359e-13
-6.39257e-14
6.64843e-14
1.43927e-15
5.3897e-14
1.48946e-13
-1.48766e-13
3.70555e-13
-2.08097e-13
4.39769e-13
3.29052e-13
4.14117e-13
1.18038e-12
-8.82347e-13
2.56302e-14
-2.381e-12
1.47355e-13
-8.34377e-12
6.65499e-13
2.89709e-12
3.01255e-12
-4.36557e-11
-3.03373e-11
1.41277e-12
8.87833e-12
-2.06304e-12
1.74569e-11
3.40508e-12
5.65942e-13
5.80728e-13
-1.16367e-11
3.18595e-12
-1.59181e-11
6.97413e-12
-2.22385e-11
4.05466e-12
-1.44826e-13
1.90045e-11
-2.54349e-11
-2.0741e-11
-1.59293e-12
-3.63773e-12
1.16726e-11
-1.94377e-11
-1.7486e-12
-2.32738e-12
1.47413e-11
2.20338e-11
-1.23665e-11
-2.01829e-11
2.50534e-12
-1.63712e-12
-9.10267e-12
9.96209e-12
-2.83588e-13
1.0355e-13
-3.92929e-14
1.89589e-11
-4.5717e-13
-1.9324e-12
-5.20942e-12
-1.48925e-13
-2.47257e-14
3.73844e-13
-7.78073e-12
-8.03612e-12
8.13251e-12
7.45631e-12
-7.0454e-13
-9.76023e-12
-1.04266e-11
-2.97865e-13
1.55685e-13
2.77733e-13
-1.47819e-13
-1.50453e-13
-1.6495e-13
9.31085e-14
9.24887e-12
-1.81682e-14
-9.08739e-12
1.41371e-11
-4.01353e-12
1.45777e-11
6.07701e-13
3.0654e-13
-5.27532e-13
-1.29828e-13
7.313e-14
4.29994e-13
7.44283e-13
3.6868e-12
3.93303e-12
-1.35465e-13
1.40574e-12
-7.10011e-13
1.79486e-12
6.44903e-11
2.61982e-11
0
-5.89987e-13
-1.31198e-12
-2.31766e-11
4.74963e-11
1.34261e-12
0
2.90451e-13
-3.97258e-12
-4.50444e-11
-3.68492e-13
2.61397e-12
4.35701e-13
1.22205e-12
-5.45248e-12
-7.38287e-14
4.35664e-13
0
-1.56523e-11
2.2364e-11
4.25785e-12
1.45769e-13
0
-2.41344e-13
2.73658e-11
-6.64744e-12
1.47494e-13
-3.27537e-12
-8.06261e-13
-6.52957e-12
-3.70993e-12
1.47539e-11
-1.46612e-11
-5.14741e-13
1.99105e-11
-2.8856e-11
1.08685e-11
8.93759e-12
1.0379e-13
-1.56715e-11
-2.98659e-13
6.89043e-12
-1.92863e-13
6.61124e-12
-8.09407e-14
-6.95311e-12
-2.97966e-13
0
-5.02902e-13
6.91298e-14
1.05613e-13
8.79051e-14
-4.24996e-16
-4.85592e-12
-4.32158e-15
6.13655e-13
-4.46957e-12
-1.05678e-11
-9.89962e-12
1.34026e-11
-1.4169e-11
2.27054e-11
-2.2346e-11
-2.70177e-13
-2.9455e-13
5.08073e-13
3.42408e-12
2.35968e-12
-2.26264e-13
5.25379e-13
-2.95534e-14
-4.73617e-13
2.84904e-13
2.5867e-11
2.0181e-13
-1.41357e-11
2.94952e-12
-1.23822e-11
-3.11381e-11
8.87468e-12
7.29413e-14
1.01957e-12
3.33626e-12
-4.83453e-12
1.23629e-11
2.2112e-13
4.93157e-12
1.45061e-13
1.88697e-11
-1.99863e-11
1.87532e-11
1.52301e-11
7.28426e-13
6.60427e-13
2.24676e-11
1.46845e-11
-7.1371e-12
-8.85077e-13
-1.07234e-11
9.47042e-12
-9.47012e-13
-5.89946e-13
-5.3606e-12
-4.41487e-13
-7.17201e-13
-1.6158e-11
1.66977e-11
-9.78633e-13
2.01255e-12
-1.57913e-11
-6.25509e-12
4.7651e-12
-8.49181e-12
-6.40941e-12
8.70022e-12
6.27926e-12
-8.21525e-14
2.6388e-13
1.86323e-13
1.22413e-13
2.1166e-13
-4.47009e-13
0
6.71297e-13
1.48525e-13
-5.5454e-13
4.05098e-13
-6.93771e-12
6.50078e-12
7.00131e-12
-7.17011e-12
1.48972e-13
-2.00915e-11
-3.11879e-12
-2.97913e-11
-7.86275e-12
2.28115e-11
-1.88006e-11
1.90261e-11
-2.15226e-13
-1.36572e-11
1.48837e-12
0
3.87485e-13
-1.88558e-12
1.73739e-12
1.35472e-13
-2.84491e-11
-2.73961e-11
2.93018e-11
-1.93446e-13
5.89419e-13
2.47182e-12
-1.54947e-11
-9.05892e-12
2.62878e-11
-6.25065e-12
-2.31483e-12
9.38995e-13
-3.77079e-11
-1.96795e-11
3.3273e-12
1.11407e-11
1.09464e-11
1.89409e-12
-5.93659e-12
6.51013e-12
-2.61762e-12
5.01197e-12
-1.90892e-11
-5.17329e-12
-5.3789e-12
7.81315e-12
1.45846e-11
4.027e-12
-5.98188e-12
-1.85701e-11
-5.35946e-12
1.40741e-11
8.15309e-12
-1.81204e-12
-5.92719e-12
-1.49117e-11
1.87025e-11
-3.80429e-12
-1.64469e-11
-1.31022e-11
1.48969e-13
-1.72528e-13
-1.03062e-11
-4.48579e-13
1.05082e-11
1.45509e-13
-8.91481e-14
-4.02942e-14
6.53175e-14
1.48999e-13
0
7.83716e-12
-7.19317e-12
-7.80341e-12
3.40105e-13
1.10127e-14
6.95744e-12
-7.77192e-14
-3.2006e-14
1.48977e-13
1.4883e-12
-8.95012e-14
-8.93349e-13
1.3026e-12
-2.33459e-13
-1.56189e-13
-4.00958e-13
1.34025e-11
-1.37148e-11
5.95317e-13
2.21017e-12
-5.70399e-12
4.23737e-11
1.1597e-12
5.89797e-13
2.42703e-12
-3.4465e-13
3.09067e-11
5.3736e-12
1.67944e-11
-3.19685e-12
2.1755e-13
1.83341e-11
1.71529e-11
-4.35845e-13
3.32503e-12
-1.84947e-11
2.88333e-11
4.17548e-12
2.31289e-12
-2.4578e-12
-1.31215e-12
3.28205e-12
6.60536e-12
-2.89132e-12
1.4826e-11
1.23023e-11
1.31353e-11
1.78696e-11
-1.74373e-11
-2.94798e-13
4.93766e-12
-9.06446e-12
8.85536e-12
-9.28408e-12
2.97739e-13
8.79863e-14
2.08451e-11
-2.07886e-11
-1.7932e-11
1.77437e-11
-1.53296e-13
0
-1.74783e-13
2.82903e-12
-7.44865e-13
1.08861e-13
1.04421e-12
9.79147e-12
-1.08942e-12
-4.62155e-12
1.04523e-11
-5.3907e-12
-1.00094e-11
1.49011e-13
7.89815e-12
7.58238e-12
-6.56412e-13
9.93827e-14
8.27485e-12
-3.85656e-14
-8.0672e-12
-7.48671e-15
-2.60029e-13
0
1.17621e-11
-3.63582e-12
1.54935e-11
9.02826e-14
2.10233e-13
-1.11946e-12
6.49663e-13
0
-1.43671e-11
1.38453e-11
2.94799e-13
-2.93754e-11
4.13315e-11
5.81139e-13
4.60109e-11
3.16288e-11
-4.15491e-11
-2.025e-13
-1.94161e-11
2.65272e-12
-1.03221e-11
-1.28672e-11
5.17783e-12
6.17823e-12
8.72116e-13
1.44649e-13
-2.31363e-13
1.15297e-12
6.08062e-12
5.64095e-12
2.89316e-13
-5.88195e-14
-1.09866e-11
4.91751e-12
8.82446e-12
3.19925e-12
-1.1006e-12
3.60311e-12
1.49535e-11
-2.61768e-12
-4.42325e-13
-1.03169e-12
4.31663e-13
-1.62571e-11
1.73997e-11
3.12702e-12
1.98974e-11
-3.0814e-11
1.03772e-11
-2.2604e-11
6.857e-12
-1.45271e-12
1.66902e-11
1.43543e-11
1.54916e-11
-1.49017e-13
-4.47128e-12
5.07762e-13
1.09893e-11
-2.61788e-13
-6.58103e-12
-1.11146e-13
-7.59426e-12
-1.52489e-13
7.75143e-12
5.0706e-12
7.27703e-15
-5.69889e-12
-4.80976e-14
4.01693e-13
2.07128e-13
1.11339e-13
-1.88206e-13
-8.27085e-12
-8.35136e-12
-2.23534e-12
3.0021e-13
2.97993e-13
4.15187e-13
-8.73518e-14
1.30781e-11
-1.35922e-11
1.7808e-11
-1.82132e-11
-2.38408e-12
-9.30056e-12
8.27206e-12
1.19756e-12
-3.19572e-11
-2.35867e-12
-1.3643e-12
-2.94214e-11
3.86552e-13
5.15144e-12
3.09942e-12
-1.4574e-13
3.6894e-14
-2.27097e-12
-3.70376e-12
0
-8.5592e-12
-1.89987e-11
2.62926e-13
5.9998e-12
9.71907e-12
0
1.50183e-11
5.64934e-12
-5.93684e-12
1.4509e-12
1.41387e-11
1.44096e-11
8.74727e-13
5.39782e-12
-1.12262e-11
-1.47649e-13
-1.93135e-11
4.15673e-11
0
2.51066e-12
-1.63931e-12
-7.72037e-12
-1.54016e-11
1.48473e-11
-2.29939e-12
1.93046e-11
-1.70854e-11
8.77842e-13
4.28896e-13
2.31093e-11
0
-7.08039e-12
4.58358e-14
7.02094e-12
-1.46323e-13
8.11642e-14
4.72083e-13
-1.14153e-13
-1.7286e-13
4.47521e-13
0
2.22152e-13
7.52558e-14
-2.06266e-13
7.86292e-14
4.35971e-14
-9.23863e-14
-7.11581e-14
-1.03293e-11
-1.05973e-11
5.22376e-12
-5.14911e-13
5.96371e-13
7.89258e-14
-1.38371e-13
-2.96224e-13
-9.70888e-13
5.85509e-13
-1.85574e-11
-6.56638e-12
4.44584e-13
3.27996e-12
-3.80429e-11
4.63718e-12
2.39085e-13
2.08754e-12
-1.13107e-12
-4.01187e-11
-2.94477e-11
-2.96339e-13
1.23322e-11
-1.15454e-11
2.52262e-11
-1.14621e-11
0
-7.90431e-12
2.24956e-12
-3.21169e-12
7.52384e-12
-4.82983e-12
5.85524e-13
6.70592e-13
1.63516e-11
8.70527e-12
-2.34199e-12
1.1746e-12
1.79963e-11
-2.38302e-11
1.25186e-11
-2.34918e-12
-3.11232e-12
-4.42604e-13
1.8223e-11
-1.98589e-11
2.37166e-12
1.34318e-11
-4.59362e-12
-3.63444e-12
1.75555e-11
1.10562e-14
3.01209e-13
1.80261e-13
-8.76535e-13
1.05079e-12
-3.1354e-12
-6.86498e-12
-6.67129e-12
8.17613e-12
9.63227e-14
-8.11869e-12
-4.23844e-14
2.94238e-13
8.54414e-12
-4.05106e-13
-8.50966e-12
-2.98453e-13
7.5687e-12
2.09215e-13
-7.03892e-12
-8.20354e-15
-9.97652e-12
-1.78057e-13
9.6374e-12
3.8901e-13
0
1.49299e-13
7.02837e-13
-5.97851e-13
1.00906e-13
-2.07947e-13
1.29259e-13
-5.56672e-13
5.24621e-13
2.50578e-12
-2.98555e-12
2.23234e-12
-4.74818e-12
-2.62535e-11
5.15784e-13
-5.35937e-13
-3.9195e-13
-6.74594e-13
-5.37355e-13
5.15916e-12
9.67176e-12
7.41178e-12
2.39671e-11
-5.40171e-11
7.26178e-12
2.96408e-13
1.92521e-12
4.31479e-13
-5.08951e-12
4.26518e-12
-5.9226e-12
1.64388e-11
1.03164e-11
-1.49836e-12
-4.38829e-12
1.31784e-11
4.89213e-12
-9.86123e-13
2.54343e-12
5.44285e-12
1.03756e-12
-4.01833e-12
1.01193e-11
2.90319e-13
-1.63294e-12
-8.92995e-13
1.26888e-11
1.32812e-11
-2.21065e-13
-1.15272e-11
6.0123e-12
-1.79576e-13
-1.41224e-11
1.53857e-11
2.50237e-14
-1.11994e-11
0
-7.58501e-12
3.30566e-14
7.4891e-12
1.46499e-13
3.73614e-14
1.4377e-13
5.37528e-13
1.27568e-14
-7.46162e-13
-6.10434e-12
-2.91216e-12
1.32386e-11
9.91651e-12
3.01561e-14
5.43374e-13
8.63036e-12
-3.04895e-13
-8.98878e-12
1.48867e-13
-5.80616e-12
2.62565e-11
-3.29888e-11
3.31909e-11
-1.94043e-11
1.37989e-11
-1.40174e-11
9.34381e-13
1.45229e-15
-1.19075e-11
-1.48607e-13
-2.62375e-13
0
-8.76277e-12
1.18269e-11
9.25321e-12
6.70294e-12
-2.75784e-11
-2.04811e-11
1.20345e-11
-1.48355e-13
-1.37347e-11
2.55688e-12
1.89941e-11
-3.75416e-11
2.22281e-11
-2.95205e-12
2.85681e-12
3.70202e-13
2.66988e-12
-5.93236e-13
3.75289e-12
4.32391e-11
5.25786e-12
-1.67462e-13
1.4995e-11
-9.11147e-13
-1.85365e-11
2.06303e-11
1.3049e-11
-2.66957e-12
-1.71042e-11
2.33935e-11
-5.02368e-12
2.90125e-13
-8.13092e-13
6.06774e-13
-3.36173e-11
-8.69053e-12
0
-4.45072e-13
-2.87842e-13
-8.05783e-12
-6.86045e-12
-1.9477e-12
1.83982e-11
-1.59036e-11
2.08298e-11
-1.90254e-11
3.26346e-12
-5.34949e-12
-1.65597e-12
-5.0997e-13
-1.70753e-12
3.42538e-11
8.60558e-13
-2.3448e-12
2.16982e-12
4.36729e-12
2.08036e-12
-1.48855e-13
2.1029e-13
-1.93161e-11
1.94033e-11
-1.61566e-12
1.37752e-12
-1.83995e-11
1.87335e-11
1.04055e-13
-2.53101e-12
2.97691e-13
2.54401e-13
-3.6688e-14
7.22009e-12
-4.77636e-13
1.77831e-13
3.07385e-13
-7.06802e-12
-3.57015e-13
0
-1.48471e-13
-3.00976e-12
-2.6107e-13
-4.26975e-13
-9.11037e-12
3.31113e-12
1.86228e-11
7.11462e-12
-9.60312e-13
8.9075e-13
8.4573e-12
-1.05945e-11
-9.40216e-12
1.03994e-11
6.91025e-13
-1.32062e-11
-5.8634e-12
1.33519e-11
-9.6993e-12
3.41217e-12
1.4817e-13
2.69583e-12
-4.29649e-12
-1.76211e-11
1.74896e-11
-1.02964e-11
1.03815e-11
7.46463e-13
4.91074e-12
-1.48147e-13
0
4.57335e-12
1.06133e-13
-6.48091e-12
6.79445e-12
1.4488e-11
-1.46872e-11
-1.89982e-13
-6.04751e-12
-8.13974e-12
-1.4798e-13
-2.95151e-13
-2.23131e-11
8.90524e-12
7.72179e-14
-3.40203e-12
1.41821e-13
-1.96947e-11
6.78709e-12
-2.95927e-13
9.32282e-12
1.45368e-11
-5.43948e-12
9.71556e-12
-9.16478e-12
-4.63309e-12
-7.64919e-14
1.91548e-11
-3.2459e-12
-8.58203e-12
9.62121e-12
-6.20574e-12
-1.27412e-11
-1.28995e-12
3.07238e-11
-5.82962e-12
-3.28757e-11
1.87807e-11
5.68028e-12
-1.48007e-13
-1.37857e-11
-1.16055e-11
-1.49976e-11
1.48991e-11
-4.59792e-13
-1.42624e-11
1.29144e-11
-3.51134e-13
-1.38777e-11
2.96469e-13
1.48374e-13
2.74345e-14
1.78642e-11
-4.79404e-13
-9.05585e-12
-3.17533e-12
-5.93061e-13
-1.06677e-11
1.0151e-11
1.12773e-11
8.90671e-12
6.34404e-12
-1.13545e-13
1.11385e-11
-4.31925e-14
-8.05497e-12
-1.03593e-12
-9.63442e-12
2.71808e-12
1.09863e-11
-7.41011e-13
-1.16948e-12
-3.00275e-12
1.78083e-13
2.63688e-12
-2.23355e-14
9.77254e-14
4.48126e-13
7.24754e-13
-1.48196e-13
-1.4812e-13
1.14651e-13
-1.559e-14
8.65274e-14
5.07796e-14
-4.26585e-14
-3.5022e-14
-5.83883e-14
-3.46819e-14
-1.48112e-13
-5.18023e-12
-5.16566e-12
2.81238e-13
-2.14583e-13
9.48947e-12
-3.5402e-14
-1.64143e-11
2.04722e-14
7.08453e-12
0
1.49402e-11
7.48955e-12
-1.03938e-11
-1.02776e-11
2.61514e-12
1.04513e-11
1.01713e-13
2.4187e-13
-9.36717e-14
-2.95839e-13
-1.05007e-11
8.12279e-14
1.05857e-11
4.91814e-13
-2.42486e-13
-6.38034e-13
-3.52743e-13
-9.42278e-12
5.38623e-13
9.16983e-12
4.4369e-13
-8.76138e-12
-6.2396e-13
9.18329e-12
-3.63609e-14
-6.73783e-12
1.53238e-13
6.52676e-12
-8.68004e-14
0
-1.47925e-13
-1.14836e-11
-8.34998e-15
1.06168e-11
-1.69382e-14
7.12339e-12
-7.21387e-16
-6.58551e-12
-2.29889e-13
0
-7.25267e-12
-7.56364e-12
1.04829e-13
6.76116e-14
-4.21089e-14
-1.09236e-11
1.49484e-14
1.0898e-11
2.12158e-13
1.48019e-13
0
2.79622e-14
8.17003e-12
-2.1897e-13
-8.29013e-12
1.13574e-11
3.92154e-13
-1.13036e-11
1.9935e-13
1.48122e-13
0
-4.53928e-13
-2.02171e-14
3.32292e-13
-3.92087e-14
6.66553e-13
4.92232e-14
-5.47747e-13
1.73402e-14
0
1.48052e-13
6.97399e-12
1.7577e-13
-6.86511e-12
2.04837e-13
-8.5193e-14
-7.51774e-12
-5.33812e-13
7.14898e-12
1.48051e-13
0
-6.30965e-13
6.70552e-12
7.10897e-13
-6.79036e-12
5.15126e-12
-1.89216e-13
-5.29004e-12
-3.93779e-14
1.48001e-13
7.24907e-12
7.15976e-12
1.47607e-13
2.2297e-13
-3.01025e-13
-1.33445e-13
-6.80677e-12
-6.7619e-12
6.76863e-12
6.95317e-12
7.09891e-12
7.25112e-12
-9.2292e-12
-6.80046e-12
5.94202e-12
3.47813e-12
-5.93862e-12
3.37375e-12
9.44942e-12
1.47898e-13
-7.98529e-12
-8.36864e-12
7.08815e-12
1.71878e-11
1.28614e-11
-9.78847e-12
-1.36016e-11
5.97667e-13
1.91238e-12
7.3943e-13
1.47875e-13
-2.60541e-14
-3.5936e-14
1.68116e-13
5.88457e-13
-1.4459e-16
5.10822e-13
-2.85263e-13
-8.71269e-13
-1.47888e-13
-9.61302e-12
-7.134e-12
9.42914e-12
7.20918e-12
-9.76455e-12
-9.82515e-12
1.00395e-11
2.44737e-12
-2.84295e-13
7.39523e-12
1.47939e-13
1.1256e-13
-1.34203e-14
4.25037e-13
-1.24941e-13
-6.37056e-13
-1.26213e-13
1.53061e-13
7.52697e-12
7.54539e-12
-9.47186e-12
-8.84434e-12
9.29164e-12
1.86742e-11
6.60107e-13
-1.01009e-11
-6.38023e-13
1.87951e-13
-5.13503e-14
0
1.48043e-13
-8.28235e-13
-2.95295e-13
1.09428e-12
-7.93568e-12
-3.52575e-13
-1.17669e-12
1.18191e-11
8.93676e-12
-1.12519e-11
-7.3985e-12
-7.31973e-12
5.17132e-13
-4.35978e-13
-4.70612e-13
5.68401e-13
-3.45677e-13
-2.2272e-13
3.11161e-13
-1.47972e-13
-4.43829e-13
9.98499e-12
1.03722e-11
-4.87038e-13
-8.97647e-12
2.08335e-13
8.27977e-12
7.21973e-12
3.52506e-14
-7.1014e-12
-7.39548e-13
7.06194e-12
1.40238e-12
-6.82503e-12
-2.69864e-13
6.92411e-12
1.63615e-11
1.10102e-15
-9.2785e-12
-1.47914e-13
8.87305e-13
1.17557e-12
1.44022e-13
-1.00088e-11
-1.0739e-11
1.00276e-11
1.08332e-11
-3.84818e-14
4.5713e-13
5.9157e-13
9.02023e-12
8.84093e-12
-3.86245e-13
-8.53676e-12
1.57903e-13
8.77158e-12
-7.97245e-12
7.03367e-12
1.1358e-11
-3.54923e-12
9.16806e-12
1.228e-13
-9.14959e-12
2.51322e-14
1.06641e-13
-1.12642e-13
-2.33262e-13
1.78169e-13
6.92033e-12
6.80275e-12
0
7.3383e-12
-1.1947e-14
-8.26226e-12
1.50083e-13
-8.4705e-14
-3.57084e-14
9.89058e-12
-4.05384e-13
-9.02162e-12
-1.47907e-13
2.04518e-13
-9.37749e-14
-9.54865e-12
-9.87155e-13
9.53864e-12
3.70341e-13
-4.1586e-13
5.92588e-13
2.95836e-13
-1.47939e-13
-1.80239e-13
-5.65008e-14
2.81701e-13
-2.42233e-14
-8.4291e-14
1.16426e-15
-7.42873e-12
-1.47168e-13
7.24943e-12
2.95928e-13
-5.50371e-14
-3.86369e-13
-7.23966e-14
1.59585e-13
2.83285e-12
-6.90683e-15
-2.80041e-12
2.14659e-13
0
-6.28692e-12
-7.0034e-12
-6.3015e-13
1.00919e-12
-2.94408e-13
-9.08034e-13
2.11293e-13
-6.16031e-14
-8.47421e-14
-3.6957e-13
-7.38528e-14
-1.81912e-14
-3.02937e-13
7.75398e-12
-4.95395e-12
-8.25628e-12
5.0124e-12
4.64468e-13
2.36566e-13
2.2176e-13
-5.17546e-13
-9.48551e-14
-6.44907e-12
-1.86411e-14
-2.07764e-12
-7.33798e-12
8.99277e-12
7.36204e-12
1.97741e-13