/*--------------------------------*- C++ -*----------------------------------*\
  =========                 |
  \\      /  F ield         | OpenFOAM: The Open Source CFD Toolbox
   \\    /   O peration     | Website:  https://openfoam.org
    \\  /    A nd           | Version:  10
     \\/     M anipulation  |
\*---------------------------------------------------------------------------*/
FoamFile
{
    format      ascii;
    class       volScalarField;
    location    "2.5";
    object      gradTz;
}
// * * * * * * * * * * * * * * * * * * * * * * * * * * * * * * * * * * * * * //

dimensions      [0 -1 0 1 0 0 0];

internalField   nonuniform List<scalar> 
3000
(
-1.90248e-09
-3.4639e-11
-8.88178e-13
1.86517e-11
-1.86517e-11
-2.79776e-11
-4.08562e-11
8.88178e-13
-4.44089e-12
-1.44773e-10
-1.94067e-09
2.30926e-11
-6.39488e-11
-1.82077e-11
-6.4837e-11
-5.68434e-11
-5.28466e-11
-2.26485e-11
-5.68434e-11
-2.66454e-12
-1.95266e-09
-4.30767e-11
-1.64313e-11
-6.03961e-11
-7.72715e-11
-3.19744e-11
-7.01661e-11
-2.26485e-11
-1.42109e-10
-3.73035e-11
-1.95266e-09
2.93099e-11
-1.59872e-11
-1.55431e-11
-6.26166e-11
-1.46994e-10
-3.81917e-11
-1.68754e-10
-3.77476e-11
-5.77316e-11
-1.946e-09
-4.30767e-11
-1.64313e-11
-1.46549e-11
-7.50511e-11
-7.01661e-11
-4.66294e-11
-1.49214e-10
-1.91847e-10
-5.68434e-11
-1.942e-09
-2.93099e-11
-1.64313e-11
1.86517e-11
-7.50511e-11
-3.19744e-11
-7.10543e-11
5.77316e-12
-1.42997e-10
-3.81917e-11
-1.946e-09
-3.28626e-11
-8.43769e-12
2.66454e-12
-2.62013e-11
-2.40252e-10
-1.39e-10
-1.49214e-10
-1.38556e-10
-5.68434e-11
-1.95222e-09
-6.83897e-11
-1.5099e-11
-4.35207e-11
-2.88658e-11
-2.26485e-11
-5.28466e-11
-1.48326e-10
-7.32747e-11
-5.28466e-11
-1.93801e-09
-5.55112e-11
-1.9984e-11
-3.9968e-11
-6.52811e-11
-1.4122e-10
-4.44089e-12
-2.26485e-11
-2.01172e-10
-7.10543e-11
6.88338e-11
3.10862e-11
-1.55431e-11
-8.57092e-11
-3.15303e-11
-1.16795e-10
-1.71863e-10
6.21725e-12
-3.10862e-11
-3.9968e-11
-1.86029e-09
-4.92939e-11
2.9754e-11
2.22045e-11
-4.13003e-11
8.88178e-13
-6.39488e-11
-1.40776e-10
1.38112e-10
-1.18128e-10
-1.95355e-09
-4.35207e-11
-2.53131e-11
1.77636e-11
-9.41469e-11
-3.9968e-12
-2.57572e-11
-8.43769e-12
2.30926e-11
-1.15463e-11
-1.97797e-09
-5.32907e-12
1.42109e-11
-8.9706e-11
-4.44089e-12
-3.9968e-12
-5.19584e-11
-7.10543e-12
-2.40696e-10
-1.25677e-10
-1.92335e-09
2.53131e-11
-3.90799e-11
-2.70894e-11
-1.30562e-10
-2.43361e-10
-5.24025e-11
-1.62093e-10
-9.37028e-11
-5.72875e-11
-1.98064e-09
-6.9722e-11
2.84217e-11
-4.30767e-11
-7.50511e-11
-7.06102e-11
-9.59233e-11
-2.23821e-10
-2.41585e-10
-7.54952e-11
-1.91758e-09
7.10543e-12
1.46549e-11
-5.55112e-11
2.04281e-11
-1.03473e-10
-5.19584e-11
2.04281e-11
-2.40696e-10
-5.4623e-11
-1.98064e-09
-1.77636e-11
4.44089e-13
-3.64153e-11
-8.92619e-11
-2.4114e-10
-2.11386e-10
-2.01617e-10
-2.10942e-10
-5.68434e-11
-1.96065e-09
-1.15019e-10
-3.77476e-11
-2.9754e-11
-3.06422e-11
-2.22045e-12
-6.35048e-11
-1.62981e-10
-8.4821e-11
-8.21565e-11
-1.87361e-09
1.59872e-11
-9.9476e-11
-3.73035e-11
-1.62537e-10
-2.4114e-10
-7.72715e-11
-8.43769e-11
-2.30482e-10
8.88178e-13
9.81437e-11
-4.39648e-11
-2.57572e-11
-8.57092e-11
-3.95239e-11
-1.72307e-10
-1.73195e-10
-1.6076e-10
1.33227e-12
-3.19744e-11
1.33227e-11
1.06581e-11
1.28786e-11
-3.37508e-11
4.44089e-13
2.26485e-11
0
-8.88178e-13
-5.32907e-12
0
-1.28786e-11
-4.21885e-11
2.26485e-11
1.15463e-11
5.32907e-12
3.68594e-11
3.28626e-11
-7.10543e-12
5.59552e-11
-5.37348e-11
-1.33227e-12
2.4869e-11
-3.86358e-11
-4.44089e-13
1.06581e-11
-7.14984e-11
1.86517e-11
-5.10703e-11
-2.79776e-11
-4.61853e-11
2.22045e-12
-3.64153e-11
4.44089e-13
3.64153e-11
-6.39488e-11
-2.17604e-11
0
2.79776e-11
0
1.46549e-11
8.88178e-13
1.55431e-11
2.22045e-11
4.26326e-11
9.72555e-11
7.10543e-11
-7.54952e-12
-8.65974e-11
4.70735e-11
7.68274e-11
1.02141e-11
2.57572e-11
-4.88498e-11
-2.53131e-11
7.86038e-11
2.79776e-11
8.74856e-11
-4.44089e-13
-3.15303e-11
-8.74856e-11
-1.59872e-11
6.26166e-11
6.35048e-11
-1.06581e-11
2.39808e-11
8.74856e-11
-5.01821e-11
-8.65974e-11
3.9968e-12
7.77156e-11
8.88178e-13
-7.99361e-12
0
4.84057e-11
-6.83897e-11
-7.37188e-11
5.10703e-11
-1.33227e-11
5.10703e-11
5.10703e-11
6.21725e-12
7.37188e-11
-7.99361e-11
3.81917e-11
-1.90958e-11
-2.79776e-11
-5.01821e-11
1.37668e-11
-9.76996e-12
1.82077e-11
0
-1.33227e-11
6.57252e-11
1.86517e-11
1.77636e-11
-3.19744e-11
1.73195e-10
-1.67866e-10
2.79776e-11
4.88498e-12
-5.06262e-11
1.33227e-11
-5.68434e-11
0
-4.44089e-13
-3.33067e-11
3.06422e-11
1.39888e-10
0
-5.01821e-11
1.33227e-11
1.02141e-11
-5.28466e-11
7.10543e-12
0
-7.14984e-11
0
-1.28786e-11
-5.06262e-11
-6.92779e-11
-5.28466e-11
-5.32907e-11
-8.03801e-11
1.28786e-11
-7.32747e-11
0
0
-7.72715e-11
4.44089e-13
0
0
0
0
0
8.88178e-13
0
5.4623e-11
-5.06262e-11
0
1.42109e-11
-3.10862e-12
0
-4.13003e-11
6.30607e-11
4.44089e-13
4.44089e-13
4.44089e-13
5.28466e-11
4.44089e-13
4.44089e-13
-5.32907e-11
-5.72875e-11
-8.39329e-11
5.24025e-11
-9.54792e-11
0
0
-7.99361e-12
8.88178e-13
4.44089e-13
2.75335e-11
-4.88498e-12
-7.99361e-12
1.33227e-11
-1.06581e-11
0
-1.86517e-11
3.06422e-11
-1.86517e-11
5.19584e-11
-3.33067e-11
5.86198e-11
3.01981e-11
-5.50671e-11
-8.57092e-11
-5.81757e-11
5.24025e-11
-6.61693e-11
5.24025e-11
0
0
0
0
-1.33227e-11
0
0
8.88178e-13
7.19425e-11
0
8.88178e-13
-5.9952e-11
4.44089e-13
0
5.24025e-11
2.22045e-12
0
-8.88178e-13
1.90958e-11
-3.33067e-11
0
-3.06422e-11
-2.39808e-11
1.68754e-11
3.41949e-11
-2.22045e-11
4.88498e-12
1.47438e-10
-1.6076e-10
1.47438e-10
2.66454e-11
-6.21725e-12
-2.4869e-11
1.59872e-11
3.15303e-11
-3.41949e-11
1.5099e-11
-7.41629e-11
6.21725e-12
2.44249e-11
0
-2.44249e-11
1.28786e-11
6.9722e-11
-3.90799e-11
-1.06581e-11
0
-1.86517e-11
4.44089e-11
-7.14984e-11
-4.13003e-11
-1.19904e-11
3.19744e-11
-3.41949e-11
-3.64153e-11
-2.39808e-11
2.4869e-11
3.15303e-11
-2.17604e-11
-5.55112e-11
3.19744e-11
-3.5083e-11
-4.08562e-11
6.08402e-11
-3.01981e-11
-9.76996e-11
-7.14984e-11
2.62013e-11
8.79297e-11
-2.84217e-11
-9.59233e-11
1.46549e-11
1.19904e-11
0
3.9968e-11
-7.86038e-11
-9.90319e-11
-6.88338e-11
-6.21725e-12
-6.83897e-11
7.10543e-11
-1.86517e-11
-8.83738e-11
-5.72875e-11
-1.33227e-11
-8.65974e-11
0
-4.08562e-11
3.33067e-11
-2.44249e-11
-2.44249e-11
-6.57252e-11
3.9968e-12
-2.35367e-11
-3.41949e-11
1.11022e-11
6.57252e-11
-2.44249e-11
-6.57252e-11
-2.44249e-11
-3.90799e-11
5.86198e-11
-2.66454e-12
0
-8.79297e-11
-7.86038e-11
4.44089e-13
0
-5.28466e-11
6.88338e-11
-8.88178e-13
3.01981e-11
-4.79616e-11
-2.13163e-11
-4.39648e-11
-2.4869e-11
-2.30926e-11
-1.77636e-12
1.82077e-11
1.42997e-10
-3.10862e-12
0
8.88178e-13
4.35207e-11
-5.15143e-11
1.5099e-11
0
1.28342e-10
-1.39444e-10
-1.45661e-10
-4.44089e-12
-1.33227e-11
3.86358e-11
4.57412e-11
6.21725e-12
2.79776e-11
8.88178e-13
2.35367e-11
0
4.30767e-11
-1.82077e-11
4.21885e-11
4.44089e-11
9.76996e-12
4.44089e-13
0
-8.03801e-11
0
0
1.86517e-11
7.10543e-11
-5.9508e-11
-3.5083e-11
0
0
0
8.79297e-11
-5.41789e-11
-4.44089e-13
9.54792e-11
4.04121e-11
8.74856e-11
8.57092e-11
1.02141e-11
0
0
1.86517e-11
0
0
1.90958e-11
7.14984e-11
8.43769e-11
3.9968e-12
3.9968e-12
1.59872e-11
0
1.86517e-11
5.32907e-11
-3.24185e-11
4.13003e-11
-2.26485e-11
4.70735e-11
4.13003e-11
1.02141e-11
8.88178e-13
0
7.10543e-11
0
-5.28466e-11
0
0
4.30767e-11
0
1.77636e-12
5.4623e-11
1.11022e-11
0
-5.28466e-11
0
0
7.10543e-11
-1.37668e-11
-5.19584e-11
8.43769e-12
-1.42109e-11
0
7.10543e-11
5.19584e-11
-2.30926e-11
1.90958e-11
-2.22045e-11
4.4853e-11
4.17444e-11
8.88178e-12
0
4.44089e-13
0
0
0
3.24185e-11
4.44089e-13
5.28466e-11
5.28466e-11
5.32907e-12
-6.21725e-12
7.86038e-11
-2.79776e-11
2.22045e-12
1.60316e-10
-1.38112e-10
1.1724e-10
7.23865e-11
4.66294e-11
-3.24185e-11
-3.19744e-11
8.34888e-11
8.88178e-12
9.41469e-11
1.37668e-11
-1.82077e-11
5.28466e-11
8.88178e-12
-3.55271e-11
-7.54952e-12
6.35048e-11
8.52651e-11
9.63674e-11
4.08562e-11
6.66134e-12
1.86517e-11
1.95399e-11
3.37508e-11
-2.9754e-11
5.63993e-11
4.79616e-11
4.44089e-13
-9.10383e-11
-7.99361e-11
-6.57252e-11
3.01981e-11
-8.03801e-11
6.43929e-11
6.21725e-11
-1.59872e-11
-3.4639e-11
7.86038e-11
8.74856e-11
-4.88498e-11
-8.08242e-11
2.35367e-11
4.08562e-11
1.11022e-11
9.32587e-12
8.9706e-11
-8.61533e-11
9.59233e-11
7.4607e-11
2.17604e-11
-5.90639e-11
4.13003e-11
-3.01981e-11
1.86517e-11
6.12843e-11
3.10862e-12
3.81917e-11
0
-3.10862e-11
1.86517e-11
-2.62013e-11
-3.55271e-12
-3.01981e-11
9.32587e-11
1.9984e-11
2.30926e-11
-4.88498e-11
-1.24345e-11
-5.90639e-11
-4.08562e-11
8.21565e-11
-4.08562e-11
-4.88498e-12
-2.4869e-11
-2.26485e-11
9.76996e-12
6.35048e-11
1.06581e-11
-1.55431e-11
3.01981e-11
-2.66454e-11
-6.88338e-11
-1.90958e-11
-5.19584e-11
-4.44089e-12
-5.32907e-11
1.82077e-11
-4.44089e-13
2.30926e-11
-1.7053e-10
-6.21725e-12
0
-1.9984e-11
-1.02141e-11
-1.33227e-12
4.75175e-11
-8.88178e-13
0
1.70974e-10
0
0
1.34559e-10
0
2.75335e-11
-3.9968e-11
4.17444e-11
0
0
9.90319e-11
4.44089e-13
0
-6.30607e-11
0
5.59552e-11
5.19584e-11
-8.43769e-12
-2.44249e-11
0
-1.90958e-11
8.88178e-13
0
-1.86517e-11
-7.19425e-11
1.77636e-11
1.24345e-11
3.86358e-11
1.33227e-12
6.88338e-11
-8.74856e-11
5.50671e-11
5.10703e-11
-7.77156e-11
-3.95239e-11
-4.44089e-11
-4.08562e-11
-9.76996e-12
-2.26485e-11
0
-1.86517e-11
6.79456e-11
0
4.88498e-11
-7.14984e-11
1.33227e-11
9.68114e-11
4.44089e-13
-6.75016e-11
-4.44089e-13
5.24025e-11
0
0
-2.30926e-11
0
-3.28626e-11
1.19904e-11
0
4.84057e-11
1.11022e-11
-3.01981e-11
0
5.28466e-11
1.95399e-11
0
-1.33227e-12
-3.10862e-12
-5.4623e-11
-4.70735e-11
1.73195e-11
0
4.92939e-11
-4.44089e-13
1.59872e-11
2.79776e-11
8.88178e-12
5.10703e-11
-7.99361e-12
2.75335e-11
0
-5.24025e-11
-5.28466e-11
1.9984e-11
3.68594e-11
-4.84057e-11
-4.30767e-11
-4.08562e-11
4.4853e-11
-2.57572e-11
-2.22045e-12
5.4623e-11
1.7053e-10
8.88178e-12
-1.77636e-12
-7.99361e-12
-9.63674e-11
1.93001e-09
-1.68754e-11
3.9968e-11
-4.21885e-11
1.67422e-10
-1.39888e-10
4.44089e-13
-8.88178e-13
-1.08802e-10
1.89493e-09
1.99751e-09
2.04281e-11
3.86358e-11
-8.88178e-13
4.44089e-11
-1.86517e-11
8.43769e-12
-1.02141e-11
3.9968e-12
1.90292e-09
1.96598e-09
-4.52971e-11
3.59712e-11
-7.54952e-12
-2.53131e-11
3.37508e-11
-1.02141e-11
8.43769e-11
5.19584e-11
1.97575e-09
1.94378e-09
0
-4.17444e-11
1.47882e-10
6.21725e-11
2.34479e-10
6.75016e-11
7.41629e-11
9.10383e-11
1.90292e-09
1.92157e-09
-3.55271e-11
3.73035e-11
-3.55271e-12
-1.68754e-11
5.15143e-11
5.55112e-11
1.19904e-11
2.9754e-11
1.96154e-09
1.93401e-09
-6.21725e-11
4.30767e-11
3.9968e-12
-3.9968e-12
2.93099e-11
7.90479e-11
3.4639e-11
5.4623e-11
1.97886e-09
1.91536e-09
1.82077e-11
3.59712e-11
1.01696e-10
3.9968e-11
8.43769e-11
8.79297e-11
2.70894e-11
2.9754e-11
1.93268e-09
1.9722e-09
-1.86517e-11
6.52811e-11
9.99201e-11
7.90479e-11
7.86038e-11
-9.76996e-12
8.83738e-11
3.86358e-11
1.89626e-09
1.96509e-09
1.77636e-11
5.10703e-11
8.88178e-11
3.95239e-11
-4.44089e-13
2.26041e-10
8.21565e-11
9.54792e-11
1.86118e-09
2.0397e-09
9.14824e-11
4.04121e-11
2.66454e-11
1.50546e-10
3.19744e-11
1.59872e-11
3.10862e-12
1.69642e-10
-4.26326e-11
1.96998e-09
-4.66294e-11
8.21565e-11
2.17604e-11
2.22045e-12
-1.26565e-10
1.40332e-10
-1.27898e-10
6.43929e-11
1.93401e-09
2.03437e-09
-4.57412e-11
0
5.41789e-11
2.66454e-11
-1.59872e-11
2.26485e-11
4.21885e-11
9.85878e-11
1.86962e-09
1.88782e-09
2.84217e-11
9.99201e-11
7.72715e-11
7.01661e-11
5.68434e-11
5.19584e-11
1.03473e-10
7.01661e-11
2.01128e-09
1.93623e-09
7.54952e-12
1.77636e-11
6.26166e-11
7.06102e-11
1.47438e-10
1.77636e-12
8.39329e-11
4.26326e-11
1.92779e-09
1.93978e-09
2.84217e-11
2.66454e-12
7.50511e-11
7.01661e-11
2.66454e-12
-8.88178e-13
3.55271e-11
7.01661e-11
1.92912e-09
1.90026e-09
2.84217e-11
4.79616e-11
9.99201e-11
-8.88178e-13
-8.88178e-13
3.81917e-11
5.68434e-11
4.66294e-11
1.95621e-09
1.88694e-09
1.82077e-11
2.53131e-11
1.01696e-10
5.37348e-11
1.03473e-10
3.19744e-11
7.68274e-11
-1.33227e-12
1.9611e-09
1.97842e-09
2.75335e-11
6.35048e-11
9.01501e-11
5.24025e-11
2.62013e-11
7.28306e-11
1.55431e-11
-2.30926e-11
1.87494e-09
1.94289e-09
2.84217e-11
6.35048e-11
9.99201e-11
7.68274e-11
5.15143e-11
1.53655e-10
4.57412e-11
9.54792e-11
1.86828e-09
2.04681e-09
3.81917e-11
7.54952e-12
2.70894e-11
1.19016e-10
-1.39e-10
0
1.42997e-10
1.4877e-10
-1.37668e-10
-1.54543e-10
-1.40332e-10
-2.22045e-12
-1.42997e-10
3.9968e-12
-1.70086e-10
-1.37668e-10
-1.4122e-10
-3.77476e-11
-9.37028e-11
-6.66134e-12
-3.90799e-11
-4.44089e-13
-2.70894e-11
-1.48326e-10
-6.66134e-12
-2.70894e-11
-4.44089e-13
-1.1946e-10
-8.43769e-11
-1.01252e-10
-2.44249e-11
-9.37028e-11
-2.44249e-11
-1.39e-10
9.32587e-12
-2.44249e-11
-9.37028e-11
3.9968e-12
-9.4591e-11
-1.03473e-10
-1.89626e-10
-1.36335e-10
-1.82965e-10
4.88498e-12
-1.50102e-10
-2.26485e-11
-3.64153e-11
-4.79616e-11
-6.03961e-11
-1.61648e-10
-2.70894e-11
-6.12843e-11
-2.29594e-10
-1.77636e-12
-6.12843e-11
-2.70894e-11
-3.59712e-11
-1.39e-10
-1.77636e-12
-5.28466e-11
-1.69198e-10
-1.77636e-11
1.33227e-12
-1.38112e-10
-3.15303e-11
-1.69198e-10
-1.02585e-10
3.55271e-12
-2.02949e-10
-9.54792e-11
-2.70894e-11
-4.21885e-11
-2.13163e-11
-1.77636e-12
-4.21885e-11
-8.88178e-13
-5.15143e-11
-1.90958e-10
-2.22045e-12
-5.68434e-11
-2.62013e-11
-1.42109e-10
-7.99361e-12
-1.42997e-10
-5.68434e-11
-7.99361e-12
-5.68434e-11
-7.99361e-12
-1.9984e-11
-1.92735e-10
-2.70894e-11
-1.56319e-10
-1.44329e-10
-1.38112e-10
-1.78524e-10
-8.88178e-13
-9.76996e-11
-1.39444e-10
-1.51879e-10
-1.42997e-10
-1.33227e-12
-1.55431e-10
-1.43441e-10
-1.44329e-10
-1.55431e-10
-1.33227e-12
-4.30767e-11
-4.88498e-12
-1.13687e-10
-1.43885e-10
-1.42997e-10
-1.40776e-10
-4.44089e-13
-1.42553e-10
-8.43769e-12
-1.40332e-10
-1.40332e-10
-5.77316e-12
-4.44089e-13
-4.26326e-11
-2.66454e-11
-9.37028e-11
-1.33227e-12
-1.42997e-10
-3.55271e-11
-2.75335e-11
-1.02141e-10
-1.05693e-10
-2.93099e-11
-4.57412e-11
-9.05942e-11
-1.77636e-11
-5.72875e-11
-1.9762e-10
-7.4607e-11
-3.9968e-12
-1.77636e-11
-5.55112e-11
-9.54792e-11
-1.11022e-11
-1.78524e-10
-6.92779e-11
-1.44773e-10
-4.44089e-13
-1.49658e-10
-2.88658e-11
-3.64153e-11
-8.17124e-11
-1.33227e-11
-1.45217e-10
-8.30447e-11
-1.24345e-11
-2.25153e-10
-8.39329e-11
-1.24345e-11
-8.30447e-11
-1.68754e-11
-2.20268e-10
2.4869e-11
-9.28146e-11
-1.87406e-10
-1.06581e-11
-4.30767e-11
-1.9762e-10
-7.90479e-11
-1.42553e-10
-9.37028e-11
-4.13003e-11
-2.02949e-10
-6.70575e-11
-6.03961e-11
-6.88338e-11
-8.26006e-11
-6.12843e-11
-1.24345e-11
-6.03961e-11
-1.07914e-10
-2.20268e-10
-1.59872e-11
-3.55271e-12
-7.28306e-11
-1.56319e-10
-2.22045e-11
-2.28262e-10
-8.43769e-12
-6.61693e-11
2.35367e-11
-2.22045e-11
-5.24025e-11
-1.49214e-10
-6.03961e-11
-2.40696e-10
-2.25597e-10
-2.39364e-10
-1.85185e-10
-6.03961e-11
-5.77316e-12
-1.9762e-10
-1.69198e-10
-1.71863e-10
-1.69642e-10
-1.7053e-10
-1.42109e-10
-1.6831e-10
-1.7053e-10
-1.69642e-10
-7.32747e-11
-1.39444e-10
1.77636e-12
1.19904e-11
-3.10862e-12
-1.04361e-10
-4.88498e-12
-1.39888e-10
1.65201e-10
1.77636e-12
4.44089e-13
-1.10134e-10
7.28306e-11
-8.4821e-11
-1.19904e-11
-1.02585e-10
-1.82077e-11
-8.61533e-11
6.21725e-12
2.84217e-11
-9.41469e-11
1.24345e-11
3.28626e-11
2.84217e-11
-1.33227e-11
5.86198e-11
1.9984e-11
-2.62013e-11
-1.19904e-11
0
9.37028e-11
-1.33227e-11
4.08562e-11
6.75016e-11
-1.19904e-11
9.05942e-11
-7.10543e-12
-4.44089e-11
-2.44249e-11
-4.39648e-11
1.33227e-12
5.32907e-11
-3.37508e-11
-5.9508e-11
-6.61693e-11
5.41789e-11
6.57252e-11
-9.23706e-11
-3.64153e-11
-6.61693e-11
-5.86198e-11
2.22045e-12
-3.28626e-11
-4.84057e-11
-4.39648e-11
-1.37668e-11
-5.77316e-12
-2.62013e-11
4.30767e-11
0
8.4821e-11
-5.77316e-12
-3.37508e-11
9.10383e-11
-6.66134e-11
1.19904e-11
0
-1.95399e-11
-3.68594e-11
-1.95399e-11
6.21725e-12
3.19744e-11
0
3.68594e-11
4.21885e-11
-4.30767e-11
-1.33227e-11
-6.30607e-11
0
-7.90479e-11
0
-5.72875e-11
-1.82077e-11
0
-2.4869e-11
1.42109e-11
-5.15143e-11
-1.90958e-11
2.88658e-11
-9.19265e-11
1.01696e-10
-5.10703e-11
-1.90958e-11
1.33227e-12
-1.69198e-10
3.10862e-12
8.88178e-13
4.88498e-12
1.53211e-10
-1.40776e-10
0
3.9968e-12
-3.19744e-11
-3.06422e-11
2.66454e-12
0
-1.42553e-10
1.42553e-10
0
2.66454e-12
0
4.44089e-13
-2.66454e-11
5.06262e-11
2.66454e-11
1.9984e-11
0
-4.44089e-13
1.15463e-11
2.62013e-11
1.90958e-11
-4.4853e-11
-7.72715e-11
4.66294e-11
4.79616e-11
0
-2.22045e-11
-2.26485e-11
2.35367e-11
-8.65974e-11
0
-2.17604e-11
7.28306e-11
-8.30447e-11
4.13003e-11
3.01981e-11
-6.4837e-11
-6.61693e-11
-8.30447e-11
-6.61693e-11
-1.15463e-11
0
-1.59872e-11
0
5.28466e-11
0
5.24025e-11
5.28466e-11
0
-1.86517e-11
0
5.28466e-11
-5.90639e-11
1.9984e-11
3.9968e-11
7.54952e-12
4.04121e-11
2.66454e-11
8.21565e-11
-5.90639e-11
1.9984e-11
4.04121e-11
3.06422e-11
6.30607e-11
3.06422e-11
6.30607e-11
0
-2.26485e-11
6.66134e-12
2.9754e-11
6.30607e-11
0
-6.57252e-11
-5.28466e-11
-4.44089e-13
7.10543e-12
0
-8.88178e-13
0
5.9508e-11
-3.06422e-11
0
5.72875e-11
-4.26326e-11
5.72875e-11
0
8.03801e-11
8.4821e-11
0
5.72875e-11
-4.26326e-11
5.72875e-11
5.01821e-11
2.4869e-11
1.90958e-11
2.57572e-11
-9.76996e-12
1.67422e-10
2.57572e-11
4.9738e-11
2.4869e-11
-9.76996e-12
-2.70894e-11
-1.77636e-12
1.46105e-10
-4.88498e-11
1.77636e-12
1.39888e-10
-1.53211e-10
1.39888e-10
-4.44089e-13
-4.44089e-13
6.66134e-12
9.90319e-11
5.10703e-11
6.70575e-11
4.44089e-11
9.23706e-11
-5.50671e-11
-2.22045e-12
9.01501e-11
-2.57572e-11
0
-1.95399e-11
1.33227e-11
-5.86198e-11
-8.65974e-11
1.37668e-11
-7.19425e-11
2.57572e-11
-9.37028e-11
7.54952e-12
2.4869e-11
1.68754e-11
-6.66134e-12
-9.14824e-11
-4.04121e-11
5.77316e-11
-1.82077e-11
3.77476e-11
1.73195e-11
-6.57252e-11
8.79297e-11
7.59393e-11
8.61533e-11
-3.10862e-12
-2.44249e-11
1.11022e-11
8.43769e-11
3.28626e-11
7.59393e-11
-6.12843e-11
-3.28626e-11
6.66134e-11
7.28306e-11
2.53131e-11
-3.86358e-11
-3.28626e-11
-9.01501e-11
-6.57252e-11
-1.82077e-11
-3.86358e-11
3.33067e-11
0
7.23865e-11
2.93099e-11
1.55431e-11
-6.17284e-11
7.23865e-11
-3.90799e-11
0
-8.88178e-12
-7.9492e-11
4.30767e-11
-7.23865e-11
1.15463e-11
-6.61693e-11
-2.13163e-11
7.81597e-11
8.26006e-11
7.19425e-11
5.72875e-11
0
4.26326e-11
0
-3.24185e-11
-7.99361e-12
-6.21725e-11
7.10543e-12
4.75175e-11
-1.06581e-11
-7.99361e-12
1.86517e-11
0
1.66978e-10
-8.43769e-12
1.40332e-10
-2.75335e-11
-1.68754e-10
-9.32587e-12
-2.93099e-11
-1.67422e-10
0
3.06422e-11
0
0
1.42553e-10
0
-1.4877e-10
0
0
-1.42109e-10
2.66454e-11
-1.42109e-11
-2.62013e-11
3.81917e-11
0
0
-3.06422e-11
-2.62013e-11
8.03801e-11
1.82077e-11
6.92779e-11
-1.15463e-11
-1.46549e-11
-1.73195e-11
7.72715e-11
4.88498e-11
6.03961e-11
7.28306e-11
6.21725e-12
7.77156e-11
-6.21725e-11
1.02141e-11
-2.17604e-11
-2.84217e-11
6.43929e-11
7.28306e-11
5.9952e-11
0
-3.73035e-11
-6.21725e-12
-5.32907e-11
-5.59552e-11
3.10862e-12
-4.88498e-11
-1.59872e-11
2.70894e-11
7.10543e-12
7.19425e-11
-5.59552e-11
-3.01981e-11
1.42109e-11
2.04281e-11
-4.70735e-11
-4.30767e-11
-6.61693e-11
-6.75016e-11
-4.26326e-11
-3.37508e-11
2.75335e-11
3.9968e-12
-5.28466e-11
-4.26326e-11
-6.30607e-11
-3.59712e-11
3.68594e-11
-1.90958e-11
-4.26326e-11
-5.28466e-11
-4.26326e-11
2.17604e-11
0
3.68594e-11
1.5099e-11
-3.5083e-11
-6.57252e-11
0
2.44249e-11
0
1.9984e-11
1.37668e-11
0
4.9738e-11
-4.30767e-11
6.70575e-11
-5.72875e-11
7.10543e-12
1.90958e-11
-7.99361e-11
1.82077e-11
-2.75335e-11
-3.15303e-11
5.32907e-12
9.76996e-12
4.88498e-12
-1.86517e-11
-1.67422e-10
4.44089e-12
-3.15303e-11
4.44089e-12
1.49658e-10
2.08722e-11
-7.54952e-12
-1.06581e-11
-1.73195e-11
1.77636e-12
-3.9968e-12
6.21725e-12
-1.40332e-10
-8.43769e-12
3.10862e-12
6.21725e-12
-1.15463e-11
2.22045e-12
-6.66134e-11
0
-5.77316e-12
5.10703e-11
-5.32907e-12
-5.77316e-11
2.62013e-11
6.21725e-12
-8.43769e-12
6.66134e-12
5.86198e-11
7.28306e-11
1.5099e-11
8.34888e-11
-6.30607e-11
8.30447e-11
-1.5099e-11
2.04281e-11
-2.88658e-11
7.28306e-11
5.50671e-11
9.50351e-11
-5.72875e-11
-3.01981e-11
-3.73035e-11
-6.57252e-11
5.06262e-11
-8.03801e-11
-1.37668e-11
-6.4837e-11
-8.70415e-11
-4.08562e-11
6.21725e-11
-2.93099e-11
5.90639e-11
-4.39648e-11
5.32907e-11
9.41469e-11
3.15303e-11
-2.17604e-11
-5.32907e-12
4.66294e-11
-5.32907e-12
2.79776e-11
2.88658e-11
2.39808e-11
-4.79616e-11
-2.62013e-11
-5.01821e-11
-5.10703e-11
-5.50671e-11
-8.12683e-11
1.77636e-11
-7.10543e-12
5.90639e-11
8.88178e-12
9.32587e-12
0
-3.06422e-11
5.72875e-11
-4.92939e-11
5.15143e-11
7.28306e-11
-7.86038e-11
5.32907e-12
-7.28306e-11
-2.79776e-11
4.66294e-11
-1.95399e-11
3.15303e-11
-1.82077e-11
6.12843e-11
7.77156e-11
-3.55271e-11
-1.95399e-11
-4.26326e-11
-3.33067e-11
-6.21725e-12
-3.19744e-11
0
-1.19904e-11
-3.64153e-11
1.66978e-10
2.57572e-11
1.4877e-10
2.17604e-11
1.66978e-10
0
1.39888e-10
-8.88178e-13
-4.44089e-12
0
0
-5.32907e-12
0
-4.44089e-12
8.88178e-13
-2.62013e-11
1.42109e-11
0
-3.86358e-11
-6.21725e-12
-4.44089e-13
3.10862e-11
-8.88178e-13
-7.99361e-11
-1.86517e-11
-4.66294e-11
-8.26006e-11
-4.44089e-13
2.35367e-11
-5.50671e-11
-6.79456e-11
-8.30447e-11
0
-8.26006e-11
-5.50671e-11
0
-1.86517e-11
-7.32747e-11
3.15303e-11
-4.44089e-13
-8.88178e-13
3.10862e-11
-4.44089e-13
5.28466e-11
0
0
5.63993e-11
-6.61693e-11
5.06262e-11
4.04121e-11
-3.15303e-11
-6.66134e-12
0
5.63993e-11
2.9754e-11
0
1.90958e-11
0
-4.26326e-11
2.57572e-11
7.14984e-11
1.82077e-11
-4.44089e-13
2.44249e-11
-1.24345e-11
-1.90958e-11
4.26326e-11
6.61693e-11
4.08562e-11
-5.59552e-11
9.9476e-11
4.26326e-11
-1.90958e-11
4.26326e-11
7.54952e-12
0
-5.55112e-11
0
-5.59552e-11
2.17604e-11
0
-3.5083e-11
0
-3.90799e-11
-4.52971e-11
-7.99361e-11
-7.54952e-12
2.53131e-11
2.93099e-11
-2.26485e-11
-9.14824e-11
2.35367e-11
3.77476e-11
3.01981e-11
-7.10543e-11
-2.39808e-11
0
-1.77636e-12
-1.95399e-11
2.79776e-11
1.65201e-10
-3.01981e-11
-2.35367e-11
-3.01981e-11
-1.47438e-10
3.77476e-11
9.32587e-12
1.37668e-11
7.4607e-11
1.44773e-10
3.9968e-12
1.49658e-10
1.42553e-10
5.10703e-11
1.42109e-10
1.50102e-10
1.53655e-10
-8.88178e-13
9.10383e-11
1.39444e-10
1.50102e-10
1.5099e-11
7.54952e-12
3.41949e-11
1.77636e-12
-4.88498e-12
2.29594e-10
-4.44089e-12
3.9968e-12
-4.44089e-12
1.38556e-10
1.39444e-10
3.81917e-11
1.38112e-10
-4.44089e-12
3.15303e-11
4.52971e-11
1.33227e-12
3.5083e-11
-2.70894e-11
6.66134e-11
7.23865e-11
3.90799e-11
2.22045e-10
1.11022e-11
5.55112e-11
1.5854e-10
6.88338e-11
2.36255e-10
7.81597e-11
1.55431e-11
1.74083e-10
-3.01981e-11
1.88738e-10
-2.35367e-11
-8.43769e-12
-3.9968e-12
1.62537e-10
6.66134e-12
1.40332e-10
2.04725e-10
2.04281e-10
6.52811e-11
5.77316e-12
6.75016e-11
5.59552e-11
1.99396e-10
7.19425e-11
1.99396e-10
6.03961e-11
2.04281e-10
1.11022e-11
-2.93099e-11
1.40332e-10
1.62537e-10
7.19425e-11
7.10543e-12
1.55875e-10
5.68434e-11
1.76748e-10
1.19016e-10
8.34888e-11
0
8.30447e-11
9.32587e-12
1.38556e-10
-4.44089e-13
1.62537e-10
2.39808e-11
-3.9968e-12
3.95239e-11
1.42109e-11
6.66134e-11
2.30926e-11
6.75016e-11
1.59872e-11
1.72307e-10
-1.4122e-10
1.69642e-10
3.68594e-11
-1.40776e-10
5.32907e-12
-1.39e-10
1.49214e-10
4.44089e-13
4.08562e-11
-1.37668e-10
1.43885e-10
4.84057e-11
1.33227e-12
3.9968e-12
1.60316e-10
1.43885e-10
4.84057e-11
1.46549e-10
1.70086e-10
1.42109e-10
2.70894e-11
6.26166e-11
1.44329e-10
1.43885e-10
3.5083e-11
2.70894e-11
5.68434e-11
4.52971e-11
3.4639e-11
2.21601e-10
3.41949e-11
-2.13163e-11
3.41949e-11
2.4114e-10
2.23377e-10
-5.32907e-12
2.21601e-10
3.41949e-11
1.06137e-10
1.01252e-10
9.4591e-11
-7.99361e-12
-1.90958e-11
2.26485e-11
-7.99361e-12
6.70575e-11
1.69642e-10
9.05942e-11
5.19584e-11
1.45217e-10
9.05942e-11
1.49658e-10
-1.33227e-12
2.70894e-11
1.45217e-10
-4.44089e-13
1.45217e-10
-8.88178e-13
3.81917e-11
2.88658e-11
1.94067e-10
8.39329e-11
1.87406e-10
1.69642e-10
1.74527e-10
9.32587e-11
1.82077e-11
-1.24345e-11
7.06102e-11
1.50102e-10
2.70894e-11
1.44329e-10
7.54952e-11
1.42109e-10
4.44089e-12
7.06102e-11
1.50102e-10
1.94067e-10
7.28306e-11
7.54952e-11
2.13163e-10
7.54952e-11
2.06501e-10
1.91847e-10
4.66294e-11
5.32907e-12
5.24025e-11
2.57572e-11
2.22489e-10
-2.13163e-11
1.62093e-10
-2.39808e-11
7.99361e-11
1.36779e-10
-2.04281e-11
4.70735e-11
-2.39808e-11
7.54952e-11
3.28626e-11
1.40776e-10
1.33227e-12
1.5854e-10
1.40332e-10
-1.38556e-10
3.10862e-11
3.24185e-11
1.7053e-10
1.48326e-10
-1.37668e-10
-1.37668e-10
-1.45217e-10
-1.37668e-10
-1.37668e-10
-1.43441e-10
-1.37668e-10
-1.42997e-10
-1.37668e-10
1.39e-10
-9.32587e-11
-2.75335e-11
-4.57412e-11
-2.70894e-11
-2.75335e-11
-4.17444e-11
-2.70894e-11
-4.30767e-11
-8.26006e-11
3.55271e-12
-8.88178e-13
-1.03473e-10
-3.59712e-11
-4.61853e-11
-4.61853e-11
-8.88178e-13
-4.61853e-11
-5.28466e-11
-4.61853e-11
-1.40332e-10
-2.22045e-11
-2.22045e-11
-4.17444e-11
4.88498e-12
4.88498e-12
-1.62093e-10
1.19904e-11
-1.94955e-10
1.19904e-11
-1.62537e-10
-4.57412e-11
-1.75859e-10
-3.59712e-11
-1.88294e-10
-1.88294e-10
-1.43441e-10
-1.88294e-10
-5.32907e-11
-1.88294e-10
-1.55875e-10
-2.70894e-11
3.9968e-12
-4.92939e-11
-1.70086e-10
-1.70086e-10
-1.43885e-10
-1.70086e-10
-1.30562e-10
-1.43885e-10
-1.33227e-12
-2.70894e-11
-2.70894e-11
-5.90639e-11
-2.44249e-11
-2.44249e-11
-1.43885e-10
-2.44249e-11
-1.42997e-10
-1.95399e-11
-2.66454e-12
1.5099e-11
-2.70894e-11
-3.55271e-11
1.77636e-12
-1.31894e-10
-4.4853e-11
1.77636e-12
-3.59712e-11
3.9968e-12
-4.44089e-12
-1.33227e-12
3.9968e-12
-5.50671e-11
-1.70086e-10
-1.70086e-10
-1.43885e-10
-1.70086e-10
-1.43441e-10
-1.70086e-10
-1.43885e-10
-2.22045e-12
-1.43441e-10
-1.56763e-10
-1.51879e-10
-1.51879e-10
-1.51434e-10
-1.51879e-10
-3.19744e-11
-1.51879e-10
1.43885e-10
-1.40332e-10
-1.6831e-10
-1.38556e-10
-1.40332e-10
5.32907e-12
-1.42109e-10
-1.40332e-10
-1.59428e-10
-1.40332e-10
1.38556e-10
-4.52971e-11
-1.33227e-12
-8.26006e-11
-4.52971e-11
-1.33227e-12
-4.26326e-11
-4.61853e-11
-4.44089e-12
-4.57412e-11
4.88498e-12
-5.77316e-12
-6.12843e-11
-1.33227e-12
-2.22045e-12
-5.9952e-11
-7.19425e-11
-5.9952e-11
1.9984e-11
-5.9952e-11
-1.45661e-10
-9.54792e-11
-2.88658e-11
-4.79616e-11
-6.70575e-11
-4.44089e-13
-1.86962e-10
-6.75016e-11
-1.88294e-10
-5.63993e-11
-1.24345e-11
-8.21565e-11
-2.25597e-10
-1.77636e-12
-2.25153e-10
-2.25153e-10
-2.25597e-10
-2.25153e-10
7.10543e-12
-2.25153e-10
-1.69642e-10
-4.61853e-11
-1.5099e-11
-3.55271e-11
-1.88738e-10
-1.88738e-10
-1.88738e-10
-1.88738e-10
-1.88738e-10
-1.43885e-10
-1.46549e-10
-1.37668e-11
-8.03801e-11
1.5099e-11
-1.06581e-11
-7.99361e-11
-2.02949e-10
-1.06581e-11
-1.39888e-10
-5.77316e-12
-1.67866e-10
9.32587e-12
-4.61853e-11
-9.41469e-11
1.77636e-12
-1.76303e-10
9.32587e-12
1.77636e-12
-8.43769e-12
-4.79616e-11
-1.56319e-10
-1.42109e-11
-5.19584e-11
1.02141e-11
-1.56319e-10
-2.25597e-10
-2.02949e-10
-1.56319e-10
-1.46549e-10
-2.02949e-10
-1.70086e-10
-1.70086e-10
-1.35447e-10
-5.77316e-12
-1.69642e-10
-1.41664e-10
-1.70086e-10
-1.69642e-10
1.37668e-10
-1.69642e-10
1.44329e-10
1.77636e-12
-2.66454e-11
1.77636e-12
1.77636e-12
-2.62013e-11
4.44089e-12
2.39808e-11
1.44773e-10
1.77636e-12
4.44089e-12
7.28306e-11
7.10543e-12
5.77316e-12
6.21725e-12
7.10543e-12
2.53131e-11
1.37668e-11
3.55271e-11
6.88338e-11
-1.39888e-10
-2.62013e-11
7.99361e-11
3.37508e-11
2.53131e-11
2.4869e-11
-4.44089e-11
2.53131e-11
7.10543e-11
2.53131e-11
1.44329e-10
-6.57252e-11
-2.4869e-11
-4.21885e-11
1.37668e-11
1.33227e-11
3.9968e-12
6.66134e-12
3.24185e-11
6.66134e-12
1.60316e-10
-4.79616e-11
1.28786e-11
3.37508e-11
-4.79616e-11
2.4869e-11
-1.95399e-11
-4.79616e-11
5.63993e-11
-4.79616e-11
1.37668e-11
2.62013e-11
1.68754e-11
-5.90639e-11
-5.50671e-11
6.66134e-12
-4.44089e-11
-1.77636e-11
-3.86358e-11
-8.17124e-11
-1.41664e-10
-6.66134e-11
3.10862e-12
3.15303e-11
2.62013e-11
0
-9.23706e-11
2.62013e-11
-4.44089e-11
2.62013e-11
-1.39888e-10
6.21725e-12
-6.57252e-11
-3.81917e-11
2.22045e-12
-3.37508e-11
-2.88658e-11
-5.41789e-11
3.37508e-11
2.22045e-12
-1.36335e-10
-3.90799e-11
1.68754e-11
-7.99361e-12
-5.59552e-11
6.66134e-12
-9.28146e-11
-1.86517e-11
-4.4853e-11
-5.59552e-11
1.33227e-12
-1.67866e-10
7.54952e-12
1.5099e-10
7.99361e-12
9.32587e-12
7.54952e-12
7.99361e-12
1.7053e-10
7.99361e-12
-4.44089e-13
2.66454e-12
3.28626e-11
0
2.66454e-12
-1.42997e-10
3.10862e-12
2.66454e-12
2.22045e-11
2.66454e-12
0
0
0
0
0
0
0
0
-6.52811e-11
4.04121e-11
0
-7.72715e-11
-2.22045e-11
2.22045e-12
-7.54952e-12
-2.22045e-11
4.44089e-11
-2.26485e-11
2.22045e-12
-2.26485e-11
-1.82077e-11
0
2.62013e-11
0
6.61693e-11
2.66454e-11
1.06581e-11
6.61693e-11
0
0
0
5.28466e-11
0
-4.08562e-11
0
0
5.24025e-11
0
-4.08562e-11
0
0
-1.42109e-11
3.19744e-11
-8.74856e-11
-1.42109e-11
-1.46549e-11
-1.46549e-11
-1.46549e-11
3.06422e-11
-5.86198e-11
-4.88498e-12
-4.61853e-11
6.92779e-11
-8.43769e-12
-4.66294e-11
2.26485e-11
0
-4.66294e-11
-8.43769e-12
-4.66294e-11
5.01821e-11
-4.44089e-13
3.9968e-11
7.63833e-11
-5.15143e-11
4.04121e-11
0
-5.10703e-11
-4.44089e-11
0
-5.77316e-12
-1.90958e-11
-1.86517e-11
0
-1.55431e-11
-1.86517e-11
5.81757e-11
-1.59872e-11
0
3.10862e-11
-5.32907e-12
2.35367e-11
1.39888e-10
0
2.30926e-11
1.39888e-10
2.35367e-11
2.30926e-11
0
2.30926e-11
-8.88178e-13
1.39888e-10
-4.88498e-12
3.86358e-11
-4.44089e-12
1.69198e-10
-3.9968e-12
-2.66454e-11
-1.45217e-10
-4.44089e-12
1.77636e-12
1.90958e-11
-8.12683e-11
2.9754e-11
1.90958e-11
-2.57572e-11
-7.10543e-12
1.24345e-11
3.10862e-12
1.24345e-11
-1.55431e-11
-1.82077e-11
1.46549e-11
0
1.95399e-11
1.46549e-11
0
1.9984e-11
4.44089e-13
1.9984e-11
0
6.57252e-11
-4.79616e-11
8.08242e-11
-7.59393e-11
7.99361e-12
-4.44089e-12
-1.9984e-11
6.66134e-12
-7.54952e-11
4.44089e-13
8.79297e-11
-3.95239e-11
-3.9968e-12
6.03961e-11
-3.95239e-11
6.66134e-12
4.79616e-11
-9.54792e-11
4.79616e-11
-2.04281e-11
-4.88498e-12
4.88498e-12
7.99361e-12
7.99361e-11
1.5099e-11
-4.04121e-11
3.95239e-11
4.4853e-11
7.63833e-11
1.40776e-10
7.90479e-11
2.13163e-11
6.66134e-12
-1.33227e-12
2.13163e-11
7.23865e-11
-4.88498e-12
3.28626e-11
-4.88498e-12
1.4122e-10
-1.11022e-11
3.33067e-11
2.70894e-11
-2.17604e-11
-2.53131e-11
9.28146e-11
1.9984e-11
-9.28146e-11
-2.17604e-11
4.44089e-13
2.57572e-11
4.88498e-12
7.99361e-12
7.9492e-11
1.5099e-11
7.23865e-11
3.95239e-11
0
7.63833e-11
1.4122e-10
1.82077e-11
2.17604e-11
-1.41664e-10
1.28342e-10
-9.76996e-12
8.88178e-13
2.35367e-11
-1.37668e-10
2.35367e-11
0
1.42553e-10
-3.24185e-11
-1.15463e-11
1.42553e-10
1.42553e-10
1.42553e-10
1.42553e-10
1.40776e-10
1.42553e-10
6.21725e-12
8.88178e-13
4.44089e-13
8.26006e-11
8.88178e-13
4.44089e-13
8.88178e-13