/*--------------------------------*- C++ -*----------------------------------*\
  =========                 |
  \\      /  F ield         | OpenFOAM: The Open Source CFD Toolbox
   \\    /   O peration     | Website:  https://openfoam.org
    \\  /    A nd           | Version:  10
     \\/     M anipulation  |
\*---------------------------------------------------------------------------*/
FoamFile
{
    format      ascii;
    class       volScalarField;
    location    "9";
    object      gradTx;
}
// * * * * * * * * * * * * * * * * * * * * * * * * * * * * * * * * * * * * * //

dimensions      [0 -1 0 1 0 0 0];

internalField   nonuniform List<scalar> 
375000
(
-8.50932
-8.50892
-8.50811
-8.5069
-8.50529
-8.50327
-8.50086
-8.49804
-8.49482
-8.4912
-8.48718
-8.48276
-8.47793
-8.47271
-8.46708
-8.46106
-8.45463
-8.4478
-8.44058
-8.43295
-8.42493
-8.4165
-8.40768
-8.39846
-8.38884
-8.37883
-8.36842
-8.35761
-8.34641
-8.33481
-8.32282
-8.31043
-8.29765
-8.28448
-8.27092
-8.25696
-8.24262
-8.22789
-8.21277
-8.19726
-8.18136
-8.16508
-8.14842
-8.13136
-8.11393
-8.09611
-8.0779
-8.05932
-8.04035
-8.021
-8.50936
-8.50896
-8.50815
-8.50695
-8.50534
-8.50333
-8.50091
-8.49809
-8.49487
-8.49124
-8.48722
-8.48279
-8.47796
-8.47272
-8.46709
-8.46106
-8.45462
-8.44779
-8.44056
-8.43293
-8.4249
-8.41647
-8.40764
-8.39842
-8.3888
-8.37879
-8.36837
-8.35757
-8.34637
-8.33477
-8.32278
-8.3104
-8.29763
-8.28446
-8.2709
-8.25695
-8.24261
-8.22788
-8.21276
-8.19726
-8.18136
-8.16508
-8.14841
-8.13136
-8.11393
-8.09611
-8.0779
-8.05932
-8.04035
-8.02101
-8.50933
-8.50892
-8.50812
-8.50691
-8.5053
-8.50329
-8.50087
-8.49806
-8.49484
-8.49122
-8.48719
-8.48277
-8.47795
-8.47272
-8.46709
-8.46106
-8.45463
-8.44781
-8.44058
-8.43295
-8.42492
-8.4165
-8.40767
-8.39845
-8.38883
-8.37882
-8.36841
-8.3576
-8.34639
-8.3348
-8.3228
-8.31042
-8.29764
-8.28447
-8.27091
-8.25695
-8.24261
-8.22788
-8.21276
-8.19725
-8.18136
-8.16508
-8.14841
-8.13136
-8.11393
-8.09611
-8.07791
-8.05932
-8.04035
-8.021
-8.50937
-8.50896
-8.50816
-8.50695
-8.50534
-8.50333
-8.50091
-8.49809
-8.49487
-8.49124
-8.48721
-8.48279
-8.47796
-8.47272
-8.46709
-8.46106
-8.45462
-8.44779
-8.44056
-8.43293
-8.4249
-8.41647
-8.40764
-8.39842
-8.3888
-8.37879
-8.36837
-8.35757
-8.34637
-8.33477
-8.32278
-8.3104
-8.29763
-8.28446
-8.2709
-8.25695
-8.24261
-8.22788
-8.21276
-8.19726
-8.18136
-8.16508
-8.14842
-8.13137
-8.11393
-8.09611
-8.0779
-8.05932
-8.04036
-8.02101
-8.50934
-8.50894
-8.50813
-8.50693
-8.50532
-8.5033
-8.50089
-8.49807
-8.49485
-8.49123
-8.4872
-8.48278
-8.47795
-8.47272
-8.46709
-8.46106
-8.45463
-8.4478
-8.44057
-8.43295
-8.42492
-8.41649
-8.40767
-8.39845
-8.38883
-8.37882
-8.3684
-8.3576
-8.34639
-8.33479
-8.3228
-8.31042
-8.29764
-8.28447
-8.2709
-8.25695
-8.24261
-8.22788
-8.21276
-8.19725
-8.18136
-8.16508
-8.14841
-8.13136
-8.11393
-8.09611
-8.07791
-8.05933
-8.04036
-8.02101
-8.50936
-8.50896
-8.50815
-8.50695
-8.50534
-8.50332
-8.50091
-8.49809
-8.49487
-8.49124
-8.48722
-8.48279
-8.47796
-8.47273
-8.4671
-8.46106
-8.45463
-8.4478
-8.44056
-8.43293
-8.4249
-8.41647
-8.40765
-8.39843
-8.38881
-8.37879
-8.36838
-8.35757
-8.34637
-8.33478
-8.32279
-8.31041
-8.29763
-8.28447
-8.27091
-8.25696
-8.24262
-8.22789
-8.21277
-8.19727
-8.18137
-8.16509
-8.14842
-8.13137
-8.11393
-8.09611
-8.07791
-8.05932
-8.04036
-8.02101
-8.50935
-8.50894
-8.50814
-8.50693
-8.50532
-8.50331
-8.50089
-8.49807
-8.49485
-8.49123
-8.48721
-8.48278
-8.47795
-8.47273
-8.4671
-8.46107
-8.45464
-8.44781
-8.44058
-8.43295
-8.42493
-8.4165
-8.40768
-8.39846
-8.38884
-8.37882
-8.36841
-8.3576
-8.34639
-8.33479
-8.3228
-8.31041
-8.29764
-8.28446
-8.2709
-8.25695
-8.24261
-8.22788
-8.21276
-8.19726
-8.18136
-8.16508
-8.14842
-8.13137
-8.11394
-8.09612
-8.07792
-8.05933
-8.04037
-8.02102
-8.50935
-8.50895
-8.50814
-8.50694
-8.50533
-8.50331
-8.5009
-8.49808
-8.49486
-8.49124
-8.48722
-8.48279
-8.47796
-8.47273
-8.4671
-8.46107
-8.45464
-8.4478
-8.44057
-8.43294
-8.42491
-8.41648
-8.40766
-8.39844
-8.38882
-8.37881
-8.3684
-8.35759
-8.34639
-8.3348
-8.32281
-8.31043
-8.29765
-8.28449
-8.27093
-8.25697
-8.24263
-8.2279
-8.21278
-8.19727
-8.18138
-8.16509
-8.14842
-8.13137
-8.11393
-8.09611
-8.07791
-8.05932
-8.04035
-8.02101
-8.50935
-8.50895
-8.50814
-8.50693
-8.50532
-8.50331
-8.5009
-8.49808
-8.49486
-8.49124
-8.48721
-8.48279
-8.47796
-8.47273
-8.4671
-8.46107
-8.45464
-8.44781
-8.44058
-8.43296
-8.42493
-8.4165
-8.40768
-8.39845
-8.38883
-8.37882
-8.3684
-8.35759
-8.34639
-8.33479
-8.3228
-8.31041
-8.29764
-8.28447
-8.27091
-8.25696
-8.24262
-8.22789
-8.21277
-8.19727
-8.18138
-8.1651
-8.14843
-8.13138
-8.11395
-8.09613
-8.07793
-8.05934
-8.04037
-8.02103
-8.50935
-8.50895
-8.50815
-8.50694
-8.50533
-8.50332
-8.5009
-8.49809
-8.49487
-8.49124
-8.48722
-8.48279
-8.47797
-8.47274
-8.46711
-8.46108
-8.45464
-8.44781
-8.44058
-8.43295
-8.42492
-8.4165
-8.40767
-8.39845
-8.38883
-8.37882
-8.36841
-8.3576
-8.3464
-8.33481
-8.32282
-8.31043
-8.29766
-8.28449
-8.27093
-8.25697
-8.24263
-8.2279
-8.21278
-8.19727
-8.18137
-8.16509
-8.14842
-8.13137
-8.11393
-8.09611
-8.07791
-8.05932
-8.04036
-8.02101
-8.50936
-8.50896
-8.50815
-8.50694
-8.50533
-8.50332
-8.5009
-8.49809
-8.49487
-8.49124
-8.48722
-8.48279
-8.47796
-8.47273
-8.4671
-8.46107
-8.45464
-8.44781
-8.44058
-8.43295
-8.42492
-8.41649
-8.40766
-8.39844
-8.38882
-8.37881
-8.36839
-8.35759
-8.34638
-8.33479
-8.3228
-8.31041
-8.29764
-8.28447
-8.27091
-8.25697
-8.24263
-8.2279
-8.21278
-8.19728
-8.18139
-8.16511
-8.14844
-8.13139
-8.11396
-8.09613
-8.07793
-8.05934
-8.04038
-8.02103
-8.50936
-8.50896
-8.50815
-8.50695
-8.50534
-8.50332
-8.50091
-8.49809
-8.49487
-8.49125
-8.48723
-8.4828
-8.47797
-8.47274
-8.46711
-8.46108
-8.45465
-8.44781
-8.44058
-8.43295
-8.42492
-8.41649
-8.40767
-8.39845
-8.38883
-8.37882
-8.36841
-8.3576
-8.3464
-8.3348
-8.32281
-8.31043
-8.29765
-8.28448
-8.27092
-8.25697
-8.24262
-8.22789
-8.21277
-8.19727
-8.18137
-8.16509
-8.14842
-8.13137
-8.11393
-8.09611
-8.07791
-8.05933
-8.04036
-8.02102
-8.50936
-8.50896
-8.50815
-8.50694
-8.50533
-8.50332
-8.5009
-8.49808
-8.49486
-8.49123
-8.48721
-8.48278
-8.47795
-8.47272
-8.46709
-8.46106
-8.45463
-8.4478
-8.44057
-8.43294
-8.42491
-8.41648
-8.40766
-8.39844
-8.38882
-8.3788
-8.36839
-8.35759
-8.34639
-8.33479
-8.3228
-8.31042
-8.29765
-8.28449
-8.27093
-8.25698
-8.24264
-8.22792
-8.2128
-8.19729
-8.1814
-8.16512
-8.14845
-8.1314
-8.11396
-8.09614
-8.07793
-8.05934
-8.04038
-8.02102
-8.50935
-8.50895
-8.50815
-8.50694
-8.50533
-8.50332
-8.5009
-8.49809
-8.49487
-8.49124
-8.48722
-8.48279
-8.47796
-8.47273
-8.4671
-8.46106
-8.45463
-8.4478
-8.44057
-8.43294
-8.42491
-8.41648
-8.40766
-8.39844
-8.38882
-8.37881
-8.3684
-8.35759
-8.34639
-8.3348
-8.32281
-8.31043
-8.29765
-8.28448
-8.27092
-8.25697
-8.24263
-8.2279
-8.21278
-8.19727
-8.18138
-8.1651
-8.14843
-8.13138
-8.11395
-8.09613
-8.07792
-8.05934
-8.04037
-8.02102
-8.50934
-8.50894
-8.50813
-8.50692
-8.50531
-8.5033
-8.50088
-8.49806
-8.49484
-8.49122
-8.4872
-8.48277
-8.47794
-8.47271
-8.46708
-8.46105
-8.45462
-8.44779
-8.44056
-8.43293
-8.4249
-8.41648
-8.40766
-8.39844
-8.38882
-8.37881
-8.3684
-8.3576
-8.3464
-8.33481
-8.32282
-8.31044
-8.29767
-8.2845
-8.27094
-8.257
-8.24266
-8.22793
-8.21281
-8.1973
-8.1814
-8.16512
-8.14845
-8.13139
-8.11395
-8.09613
-8.07792
-8.05933
-8.04037
-8.02101
-8.50934
-8.50894
-8.50814
-8.50693
-8.50532
-8.50331
-8.50089
-8.49807
-8.49485
-8.49123
-8.4872
-8.48277
-8.47794
-8.47271
-8.46708
-8.46105
-8.45462
-8.44779
-8.44055
-8.43293
-8.4249
-8.41647
-8.40765
-8.39843
-8.38881
-8.3788
-8.36839
-8.35759
-8.34639
-8.33479
-8.3228
-8.31042
-8.29765
-8.28448
-8.27092
-8.25697
-8.24263
-8.22791
-8.21279
-8.19729
-8.18139
-8.16511
-8.14845
-8.1314
-8.11396
-8.09614
-8.07793
-8.05935
-8.04038
-8.02103
-8.50933
-8.50893
-8.50812
-8.50691
-8.5053
-8.50329
-8.50087
-8.49806
-8.49484
-8.49121
-8.48719
-8.48276
-8.47793
-8.47271
-8.46708
-8.46104
-8.45461
-8.44778
-8.44055
-8.43293
-8.4249
-8.41648
-8.40765
-8.39844
-8.38882
-8.37881
-8.3684
-8.3576
-8.3464
-8.33481
-8.32282
-8.31044
-8.29767
-8.2845
-8.27094
-8.25699
-8.24265
-8.22792
-8.2128
-8.19729
-8.18139
-8.16511
-8.14844
-8.13138
-8.11394
-8.09612
-8.07792
-8.05933
-8.04036
-8.02102
-8.50933
-8.50893
-8.50813
-8.50692
-8.50531
-8.5033
-8.50088
-8.49806
-8.49484
-8.49122
-8.48719
-8.48276
-8.47793
-8.4727
-8.46707
-8.46104
-8.4546
-8.44777
-8.44054
-8.43291
-8.42488
-8.41646
-8.40763
-8.39841
-8.3888
-8.37878
-8.36837
-8.35757
-8.34637
-8.33478
-8.32279
-8.31041
-8.29764
-8.28447
-8.27092
-8.25697
-8.24263
-8.22791
-8.21279
-8.19729
-8.1814
-8.16512
-8.14845
-8.1314
-8.11396
-8.09614
-8.07794
-8.05935
-8.04038
-8.02103
-8.50932
-8.50891
-8.50811
-8.5069
-8.50529
-8.50328
-8.50086
-8.49804
-8.49482
-8.4912
-8.48717
-8.48275
-8.47792
-8.47269
-8.46706
-8.46103
-8.4546
-8.44776
-8.44053
-8.43291
-8.42488
-8.41645
-8.40763
-8.39841
-8.3888
-8.37879
-8.36838
-8.35757
-8.34638
-8.33478
-8.32279
-8.31041
-8.29764
-8.28447
-8.27091
-8.25696
-8.24263
-8.2279
-8.21278
-8.19727
-8.18138
-8.1651
-8.14844
-8.13139
-8.11396
-8.09614
-8.07794
-8.05936
-8.04039
-8.02105
-8.50932
-8.50892
-8.50812
-8.50691
-8.5053
-8.50329
-8.50087
-8.49805
-8.49483
-8.4912
-8.48718
-8.48275
-8.47792
-8.47268
-8.46705
-8.46102
-8.45458
-8.44775
-8.44052
-8.43289
-8.42486
-8.41644
-8.40761
-8.39839
-8.38878
-8.37876
-8.36836
-8.35755
-8.34635
-8.33476
-8.32278
-8.3104
-8.29763
-8.28446
-8.27091
-8.25696
-8.24263
-8.2279
-8.21279
-8.19728
-8.18139
-8.16511
-8.14845
-8.1314
-8.11396
-8.09614
-8.07794
-8.05935
-8.04039
-8.02104
-8.50929
-8.50888
-8.50808
-8.50687
-8.50526
-8.50325
-8.50083
-8.49801
-8.49479
-8.49117
-8.48715
-8.48272
-8.47789
-8.47266
-8.46703
-8.461
-8.45457
-8.44774
-8.44051
-8.43288
-8.42485
-8.41643
-8.4076
-8.39839
-8.38877
-8.37876
-8.36835
-8.35755
-8.34635
-8.33476
-8.32277
-8.31039
-8.29762
-8.28446
-8.2709
-8.25696
-8.24262
-8.2279
-8.21279
-8.19729
-8.1814
-8.16513
-8.14847
-8.13142
-8.11399
-8.09617
-8.07797
-8.05939
-8.04043
-8.02108
-8.5093
-8.5089
-8.50809
-8.50688
-8.50527
-8.50326
-8.50084
-8.49802
-8.4948
-8.49118
-8.48715
-8.48272
-8.47789
-8.47266
-8.46703
-8.461
-8.45457
-8.44773
-8.4405
-8.43288
-8.42485
-8.41643
-8.4076
-8.39839
-8.38877
-8.37876
-8.36835
-8.35755
-8.34635
-8.33476
-8.32278
-8.3104
-8.29763
-8.28446
-8.27091
-8.25696
-8.24262
-8.2279
-8.21278
-8.19728
-8.18139
-8.16511
-8.14845
-8.1314
-8.11397
-8.09615
-8.07795
-8.05937
-8.04041
-8.02106
-8.50926
-8.50886
-8.50805
-8.50684
-8.50523
-8.50322
-8.50081
-8.49799
-8.49477
-8.49115
-8.48712
-8.4827
-8.47787
-8.47264
-8.46701
-8.46098
-8.45455
-8.44772
-8.44049
-8.43286
-8.42484
-8.41642
-8.4076
-8.39838
-8.38877
-8.37876
-8.36835
-8.35755
-8.34635
-8.33476
-8.32278
-8.3104
-8.29763
-8.28447
-8.27092
-8.25698
-8.24265
-8.22792
-8.21281
-8.19731
-8.18142
-8.16515
-8.14849
-8.13144
-8.11401
-8.09619
-8.07799
-8.0594
-8.04044
-8.02109
-8.50928
-8.50888
-8.50807
-8.50686
-8.50525
-8.50324
-8.50082
-8.498
-8.49478
-8.49116
-8.48713
-8.4827
-8.47788
-8.47265
-8.46702
-8.46098
-8.45455
-8.44772
-8.44049
-8.43287
-8.42484
-8.41642
-8.4076
-8.39838
-8.38877
-8.37876
-8.36835
-8.35755
-8.34635
-8.33476
-8.32278
-8.3104
-8.29763
-8.28446
-8.27091
-8.25696
-8.24263
-8.22791
-8.21279
-8.19729
-8.1814
-8.16513
-8.14847
-8.13142
-8.11399
-8.09618
-8.07798
-8.0594
-8.04044
-8.02109
-8.50926
-8.50885
-8.50805
-8.50684
-8.50523
-8.50322
-8.5008
-8.49798
-8.49476
-8.49114
-8.48712
-8.48269
-8.47786
-8.47263
-8.467
-8.46098
-8.45455
-8.44772
-8.44049
-8.43287
-8.42484
-8.41642
-8.40761
-8.39839
-8.38878
-8.37877
-8.36837
-8.35757
-8.34637
-8.33478
-8.3228
-8.31042
-8.29765
-8.28449
-8.27094
-8.25699
-8.24266
-8.22793
-8.21282
-8.19732
-8.18143
-8.16515
-8.14848
-8.13143
-8.114
-8.09618
-8.07798
-8.05939
-8.04042
-8.02108
-8.50927
-8.50887
-8.50806
-8.50685
-8.50524
-8.50323
-8.50081
-8.49799
-8.49477
-8.49115
-8.48712
-8.4827
-8.47787
-8.47264
-8.467
-8.46097
-8.45454
-8.44771
-8.44048
-8.43286
-8.42483
-8.41641
-8.40759
-8.39837
-8.38876
-8.37875
-8.36835
-8.35755
-8.34635
-8.33476
-8.32278
-8.3104
-8.29763
-8.28447
-8.27092
-8.25698
-8.24264
-8.22792
-8.21281
-8.19731
-8.18143
-8.16515
-8.14849
-8.13145
-8.11402
-8.0962
-8.078
-8.05942
-8.04045
-8.02111
-8.50928
-8.50888
-8.50807
-8.50686
-8.50525
-8.50324
-8.50082
-8.498
-8.49478
-8.49116
-8.48713
-8.48271
-8.47788
-8.47265
-8.46702
-8.46099
-8.45456
-8.44773
-8.4405
-8.43288
-8.42485
-8.41643
-8.40761
-8.3984
-8.38878
-8.37878
-8.36837
-8.35757
-8.34637
-8.33478
-8.3228
-8.31042
-8.29765
-8.28448
-8.27093
-8.25698
-8.24265
-8.22792
-8.21281
-8.1973
-8.18141
-8.16513
-8.14847
-8.13142
-8.11399
-8.09617
-8.07796
-8.05938
-8.04041
-8.02107
-8.50928
-8.50887
-8.50807
-8.50686
-8.50525
-8.50323
-8.50081
-8.49799
-8.49477
-8.49115
-8.48712
-8.48269
-8.47786
-8.47263
-8.467
-8.46097
-8.45454
-8.44771
-8.44048
-8.43285
-8.42483
-8.41641
-8.40759
-8.39837
-8.38876
-8.37875
-8.36835
-8.35755
-8.34636
-8.33477
-8.32279
-8.31041
-8.29764
-8.28448
-8.27093
-8.25699
-8.24266
-8.22794
-8.21283
-8.19733
-8.18144
-8.16516
-8.1485
-8.13146
-8.11402
-8.0962
-8.078
-8.05942
-8.04046
-8.02111
-8.50931
-8.50891
-8.5081
-8.50689
-8.50528
-8.50327
-8.50085
-8.49803
-8.49481
-8.49119
-8.48716
-8.48273
-8.4779
-8.47267
-8.46704
-8.46101
-8.45458
-8.44775
-8.44051
-8.43289
-8.42486
-8.41644
-8.40761
-8.3984
-8.38878
-8.37877
-8.36836
-8.35756
-8.34636
-8.33477
-8.32278
-8.31041
-8.29763
-8.28447
-8.27092
-8.25697
-8.24263
-8.22791
-8.21279
-8.19729
-8.1814
-8.16512
-8.14846
-8.13141
-8.11397
-8.09615
-8.07795
-8.05937
-8.0404
-8.02105
-8.5093
-8.50889
-8.50808
-8.50687
-8.50526
-8.50325
-8.50083
-8.49801
-8.49478
-8.49116
-8.48713
-8.4827
-8.47787
-8.47264
-8.46701
-8.46098
-8.45455
-8.44772
-8.44049
-8.43286
-8.42484
-8.41642
-8.4076
-8.39838
-8.38877
-8.37876
-8.36836
-8.35756
-8.34637
-8.33478
-8.32279
-8.31042
-8.29765
-8.28449
-8.27094
-8.25699
-8.24266
-8.22794
-8.21282
-8.19732
-8.18143
-8.16516
-8.14849
-8.13144
-8.11401
-8.09619
-8.07799
-8.0594
-8.04044
-8.02109
-8.50933
-8.50893
-8.50813
-8.50692
-8.50531
-8.5033
-8.50088
-8.49806
-8.49484
-8.49121
-8.48718
-8.48275
-8.47792
-8.47269
-8.46706
-8.46102
-8.45459
-8.44776
-8.44053
-8.4329
-8.42487
-8.41644
-8.40762
-8.3984
-8.38879
-8.37877
-8.36837
-8.35756
-8.34636
-8.33477
-8.32279
-8.31041
-8.29763
-8.28447
-8.27091
-8.25697
-8.24263
-8.2279
-8.21279
-8.19728
-8.18139
-8.16511
-8.14845
-8.1314
-8.11396
-8.09614
-8.07794
-8.05935
-8.04038
-8.02104
-8.50932
-8.50892
-8.50811
-8.5069
-8.50529
-8.50327
-8.50085
-8.49803
-8.49481
-8.49119
-8.48716
-8.48273
-8.4779
-8.47267
-8.46704
-8.46101
-8.45457
-8.44774
-8.44051
-8.43289
-8.42486
-8.41644
-8.40762
-8.3984
-8.38879
-8.37878
-8.36837
-8.35757
-8.34638
-8.33479
-8.3228
-8.31042
-8.29765
-8.28449
-8.27094
-8.25699
-8.24265
-8.22793
-8.21281
-8.19731
-8.18141
-8.16513
-8.14847
-8.13141
-8.11398
-8.09615
-8.07795
-8.05936
-8.04039
-8.02104
-8.50935
-8.50895
-8.50814
-8.50694
-8.50532
-8.50331
-8.50089
-8.49807
-8.49485
-8.49122
-8.48719
-8.48277
-8.47793
-8.4727
-8.46707
-8.46104
-8.4546
-8.44777
-8.44054
-8.43291
-8.42488
-8.41645
-8.40763
-8.39841
-8.3888
-8.37878
-8.36838
-8.35757
-8.34637
-8.33478
-8.32279
-8.31041
-8.29764
-8.28447
-8.27091
-8.25696
-8.24262
-8.22789
-8.21278
-8.19727
-8.18138
-8.1651
-8.14843
-8.13138
-8.11394
-8.09612
-8.07792
-8.05933
-8.04036
-8.02101
-8.50934
-8.50893
-8.50813
-8.50692
-8.50531
-8.50329
-8.50088
-8.49806
-8.49483
-8.49121
-8.48718
-8.48275
-8.47792
-8.47269
-8.46706
-8.46103
-8.4546
-8.44777
-8.44054
-8.43291
-8.42488
-8.41646
-8.40764
-8.39842
-8.38881
-8.3788
-8.36839
-8.35759
-8.34639
-8.3348
-8.32281
-8.31043
-8.29765
-8.28449
-8.27093
-8.25698
-8.24264
-8.22791
-8.21279
-8.19728
-8.18138
-8.1651
-8.14843
-8.13138
-8.11394
-8.09612
-8.07791
-8.05932
-8.04036
-8.02101
-8.50936
-8.50896
-8.50816
-8.50695
-8.50534
-8.50332
-8.50091
-8.49809
-8.49486
-8.49124
-8.48721
-8.48278
-8.47795
-8.47271
-8.46708
-8.46105
-8.45461
-8.44778
-8.44055
-8.43292
-8.42489
-8.41646
-8.40764
-8.39842
-8.3888
-8.37879
-8.36838
-8.35757
-8.34637
-8.33477
-8.32278
-8.3104
-8.29763
-8.28446
-8.2709
-8.25695
-8.24261
-8.22788
-8.21276
-8.19725
-8.18136
-8.16508
-8.14841
-8.13136
-8.11392
-8.0961
-8.0779
-8.05931
-8.04034
-8.02099
-8.50935
-8.50895
-8.50814
-8.50693
-8.50532
-8.5033
-8.50088
-8.49806
-8.49484
-8.49122
-8.48719
-8.48276
-8.47793
-8.4727
-8.46707
-8.46104
-8.45461
-8.44778
-8.44055
-8.43292
-8.42489
-8.41647
-8.40765
-8.39843
-8.38881
-8.3788
-8.36839
-8.35759
-8.34639
-8.33479
-8.3228
-8.31042
-8.29764
-8.28447
-8.27091
-8.25696
-8.24261
-8.22788
-8.21276
-8.19726
-8.18136
-8.16508
-8.14841
-8.13136
-8.11392
-8.0961
-8.07789
-8.05931
-8.04034
-8.02099
-8.50938
-8.50897
-8.50817
-8.50696
-8.50535
-8.50333
-8.50092
-8.49809
-8.49487
-8.49124
-8.48722
-8.48279
-8.47795
-8.47272
-8.46709
-8.46105
-8.45462
-8.44778
-8.44055
-8.43292
-8.42489
-8.41646
-8.40764
-8.39842
-8.3888
-8.37878
-8.36837
-8.35757
-8.34636
-8.33477
-8.32278
-8.3104
-8.29762
-8.28445
-8.27089
-8.25694
-8.2426
-8.22787
-8.21275
-8.19724
-8.18135
-8.16507
-8.1484
-8.13135
-8.11391
-8.09609
-8.07788
-8.0593
-8.04033
-8.02098
-8.50935
-8.50895
-8.50814
-8.50693
-8.50532
-8.5033
-8.50089
-8.49807
-8.49484
-8.49122
-8.48719
-8.48276
-8.47793
-8.4727
-8.46707
-8.46104
-8.45461
-8.44778
-8.44055
-8.43292
-8.42489
-8.41647
-8.40764
-8.39842
-8.38881
-8.37879
-8.36838
-8.35757
-8.34637
-8.33477
-8.32278
-8.3104
-8.29762
-8.28446
-8.2709
-8.25694
-8.2426
-8.22787
-8.21276
-8.19725
-8.18135
-8.16507
-8.14841
-8.13136
-8.11392
-8.0961
-8.07789
-8.05931
-8.04034
-8.02099
-8.50936
-8.50896
-8.50816
-8.50695
-8.50534
-8.50332
-8.50091
-8.49808
-8.49486
-8.49123
-8.48721
-8.48278
-8.47794
-8.47271
-8.46708
-8.46104
-8.45461
-8.44778
-8.44055
-8.43292
-8.42489
-8.41646
-8.40764
-8.39842
-8.3888
-8.37878
-8.36837
-8.35757
-8.34636
-8.33477
-8.32278
-8.31039
-8.29762
-8.28445
-8.27089
-8.25694
-8.2426
-8.22787
-8.21275
-8.19724
-8.18135
-8.16506
-8.14839
-8.13134
-8.1139
-8.09608
-8.07787
-8.05929
-8.04032
-8.02097
-8.50934
-8.50893
-8.50813
-8.50692
-8.50531
-8.50329
-8.50088
-8.49806
-8.49484
-8.49121
-8.48719
-8.48276
-8.47793
-8.4727
-8.46707
-8.46104
-8.4546
-8.44777
-8.44054
-8.43291
-8.42488
-8.41646
-8.40763
-8.39841
-8.38879
-8.37878
-8.36837
-8.35756
-8.34636
-8.33476
-8.32277
-8.31039
-8.29762
-8.28445
-8.27089
-8.25694
-8.2426
-8.22787
-8.21275
-8.19725
-8.18135
-8.16507
-8.1484
-8.13135
-8.11392
-8.09609
-8.07789
-8.0593
-8.04034
-8.02099
-8.50934
-8.50894
-8.50813
-8.50692
-8.50531
-8.5033
-8.50088
-8.49806
-8.49484
-8.49122
-8.48719
-8.48276
-8.47793
-8.4727
-8.46707
-8.46104
-8.45461
-8.44777
-8.44054
-8.43291
-8.42488
-8.41646
-8.40763
-8.39841
-8.3888
-8.37878
-8.36837
-8.35756
-8.34636
-8.33476
-8.32277
-8.31039
-8.29761
-8.28445
-8.27088
-8.25693
-8.24259
-8.22786
-8.21274
-8.19723
-8.18134
-8.16505
-8.14839
-8.13133
-8.1139
-8.09607
-8.07787
-8.05928
-8.04031
-8.02096
-8.50932
-8.50891
-8.50811
-8.5069
-8.50529
-8.50328
-8.50087
-8.49805
-8.49483
-8.49121
-8.48718
-8.48275
-8.47792
-8.47269
-8.46706
-8.46103
-8.4546
-8.44776
-8.44053
-8.4329
-8.42487
-8.41644
-8.40762
-8.39839
-8.38878
-8.37876
-8.36835
-8.35754
-8.34634
-8.33474
-8.32275
-8.31037
-8.29759
-8.28443
-8.27087
-8.25692
-8.24258
-8.22785
-8.21274
-8.19723
-8.18134
-8.16506
-8.14839
-8.13134
-8.11391
-8.09609
-8.07789
-8.0593
-8.04034
-8.02099
-8.50932
-8.50891
-8.50811
-8.5069
-8.50529
-8.50328
-8.50086
-8.49805
-8.49483
-8.49121
-8.48718
-8.48275
-8.47793
-8.4727
-8.46706
-8.46103
-8.4546
-8.44777
-8.44054
-8.43291
-8.42488
-8.41645
-8.40763
-8.3984
-8.38879
-8.37877
-8.36836
-8.35755
-8.34635
-8.33475
-8.32276
-8.31038
-8.2976
-8.28443
-8.27087
-8.25692
-8.24257
-8.22784
-8.21272
-8.19722
-8.18132
-8.16504
-8.14837
-8.13132
-8.11388
-8.09606
-8.07785
-8.05927
-8.0403
-8.02095
-8.50931
-8.5089
-8.5081
-8.50689
-8.50528
-8.50327
-8.50086
-8.49804
-8.49482
-8.4912
-8.48717
-8.48275
-8.47792
-8.47269
-8.46705
-8.46102
-8.45459
-8.44775
-8.44052
-8.43289
-8.42485
-8.41643
-8.4076
-8.39838
-8.38876
-8.37874
-8.36833
-8.35752
-8.34632
-8.33472
-8.32273
-8.31035
-8.29757
-8.28441
-8.27085
-8.2569
-8.24256
-8.22784
-8.21272
-8.19722
-8.18132
-8.16505
-8.14838
-8.13133
-8.1139
-8.09608
-8.07788
-8.0593
-8.04033
-8.02099
-8.5093
-8.5089
-8.50809
-8.50689
-8.50528
-8.50327
-8.50085
-8.49804
-8.49482
-8.4912
-8.48718
-8.48275
-8.47792
-8.47269
-8.46706
-8.46103
-8.4546
-8.44777
-8.44054
-8.4329
-8.42487
-8.41645
-8.40762
-8.3984
-8.38878
-8.37876
-8.36835
-8.35754
-8.34634
-8.33474
-8.32275
-8.31036
-8.29758
-8.28441
-8.27085
-8.2569
-8.24256
-8.22783
-8.21271
-8.1972
-8.1813
-8.16502
-8.14835
-8.1313
-8.11386
-8.09604
-8.07784
-8.05925
-8.04029
-8.02094
-8.50929
-8.50889
-8.50809
-8.50688
-8.50527
-8.50326
-8.50085
-8.49803
-8.49481
-8.49119
-8.48716
-8.48274
-8.47791
-8.47267
-8.46704
-8.46101
-8.45457
-8.44774
-8.44051
-8.43287
-8.42484
-8.41642
-8.40759
-8.39837
-8.38875
-8.37873
-8.36832
-8.35751
-8.34631
-8.33471
-8.32272
-8.31034
-8.29757
-8.2844
-8.27084
-8.25689
-8.24255
-8.22783
-8.21271
-8.19721
-8.18132
-8.16504
-8.14837
-8.13132
-8.11389
-8.09607
-8.07787
-8.05928
-8.04032
-8.02097
-8.50929
-8.50889
-8.50808
-8.50688
-8.50527
-8.50326
-8.50085
-8.49803
-8.49482
-8.4912
-8.48717
-8.48275
-8.47792
-8.47269
-8.46706
-8.46103
-8.4546
-8.44777
-8.44053
-8.4329
-8.42487
-8.41644
-8.40761
-8.39839
-8.38877
-8.37875
-8.36834
-8.35753
-8.34632
-8.33472
-8.32273
-8.31034
-8.29757
-8.2844
-8.27084
-8.25688
-8.24254
-8.22781
-8.21269
-8.19718
-8.18129
-8.16501
-8.14834
-8.13129
-8.11385
-8.09603
-8.07782
-8.05924
-8.04027
-8.02093
-8.50928
-8.50888
-8.50807
-8.50686
-8.50525
-8.50324
-8.50083
-8.49801
-8.49479
-8.49117
-8.48715
-8.48272
-8.47789
-8.47267
-8.46703
-8.461
-8.45457
-8.44774
-8.44051
-8.43287
-8.42484
-8.41642
-8.40759
-8.39837
-8.38875
-8.37873
-8.36832
-8.35751
-8.34631
-8.33471
-8.32272
-8.31034
-8.29756
-8.2844
-8.27084
-8.25689
-8.24255
-8.22783
-8.21271
-8.1972
-8.18131
-8.16503
-8.14837
-8.13132
-8.11388
-8.09606
-8.07786
-8.05927
-8.04031
-8.02096
-8.50929
-8.50888
-8.50808
-8.50688
-8.50527
-8.50326
-8.50085
-8.49803
-8.49481
-8.49119
-8.48717
-8.48275
-8.47792
-8.47269
-8.46706
-8.46103
-8.4546
-8.44776
-8.44053
-8.4329
-8.42487
-8.41644
-8.40761
-8.39838
-8.38876
-8.37874
-8.36833
-8.35752
-8.34631
-8.33471
-8.32272
-8.31034
-8.29756
-8.28439
-8.27083
-8.25688
-8.24253
-8.2278
-8.21269
-8.19718
-8.18129
-8.165
-8.14834
-8.13128
-8.11385
-8.09603
-8.07782
-8.05924
-8.04027
-8.02093
-8.50927
-8.50887
-8.50806
-8.50685
-8.50525
-8.50323
-8.50082
-8.498
-8.49478
-8.49116
-8.48714
-8.48271
-8.47789
-8.47266
-8.46703
-8.461
-8.45457
-8.44774
-8.44051
-8.43288
-8.42485
-8.41642
-8.40759
-8.39837
-8.38875
-8.37874
-8.36832
-8.35752
-8.34631
-8.33472
-8.32273
-8.31035
-8.29757
-8.2844
-8.27085
-8.2569
-8.24256
-8.22783
-8.21271
-8.19721
-8.18131
-8.16503
-8.14837
-8.13131
-8.11388
-8.09606
-8.07785
-8.05927
-8.0403
-8.02095
-8.50935
-8.50895
-8.50815
-8.50694
-8.50533
-8.50332
-8.5009
-8.49808
-8.49486
-8.49124
-8.48721
-8.48278
-8.47795
-8.47272
-8.46709
-8.46106
-8.45462
-8.44779
-8.44056
-8.43293
-8.4249
-8.41647
-8.40765
-8.39842
-8.38881
-8.37879
-8.36838
-8.35757
-8.34637
-8.33478
-8.32279
-8.31041
-8.29763
-8.28446
-8.2709
-8.25695
-8.24261
-8.22788
-8.21276
-8.19726
-8.18136
-8.16508
-8.14842
-8.13136
-8.11393
-8.09611
-8.07791
-8.05932
-8.04036
-8.02101
-8.50932
-8.50892
-8.50811
-8.50691
-8.5053
-8.50328
-8.50087
-8.49806
-8.49484
-8.49122
-8.4872
-8.48278
-8.47795
-8.47272
-8.4671
-8.46107
-8.45464
-8.44781
-8.44058
-8.43296
-8.42493
-8.4165
-8.40768
-8.39846
-8.38884
-8.37882
-8.36841
-8.3576
-8.3464
-8.3348
-8.32281
-8.31042
-8.29764
-8.28447
-8.27091
-8.25696
-8.24261
-8.22788
-8.21276
-8.19726
-8.18136
-8.16508
-8.14842
-8.13136
-8.11393
-8.09611
-8.0779
-8.05932
-8.04035
-8.02101
-8.50936
-8.50896
-8.50816
-8.50695
-8.50534
-8.50332
-8.50091
-8.49809
-8.49486
-8.49124
-8.48721
-8.48278
-8.47795
-8.47272
-8.46709
-8.46106
-8.45462
-8.44779
-8.44056
-8.43293
-8.4249
-8.41647
-8.40765
-8.39842
-8.38881
-8.37879
-8.36838
-8.35757
-8.34637
-8.33478
-8.32279
-8.31041
-8.29763
-8.28446
-8.2709
-8.25695
-8.24261
-8.22788
-8.21276
-8.19726
-8.18136
-8.16508
-8.14842
-8.13137
-8.11393
-8.09611
-8.07791
-8.05933
-8.04037
-8.02102
-8.50934
-8.50894
-8.50814
-8.50693
-8.50532
-8.50331
-8.50089
-8.49808
-8.49486
-8.49123
-8.48721
-8.48278
-8.47796
-8.47273
-8.4671
-8.46107
-8.45464
-8.44781
-8.44058
-8.43295
-8.42492
-8.41649
-8.40767
-8.39845
-8.38883
-8.37881
-8.3684
-8.35759
-8.34639
-8.33479
-8.3228
-8.31041
-8.29763
-8.28446
-8.2709
-8.25695
-8.24261
-8.22788
-8.21276
-8.19726
-8.18136
-8.16508
-8.14842
-8.13137
-8.11393
-8.09611
-8.07791
-8.05932
-8.04036
-8.02101
-8.50937
-8.50897
-8.50816
-8.50695
-8.50534
-8.50333
-8.50091
-8.49809
-8.49487
-8.49124
-8.48722
-8.48279
-8.47796
-8.47273
-8.46709
-8.46106
-8.45463
-8.44779
-8.44056
-8.43293
-8.4249
-8.41647
-8.40765
-8.39843
-8.38881
-8.37879
-8.36838
-8.35757
-8.34637
-8.33478
-8.32279
-8.31041
-8.29763
-8.28446
-8.27091
-8.25695
-8.24262
-8.22789
-8.21277
-8.19726
-8.18137
-8.16509
-8.14842
-8.13137
-8.11394
-8.09612
-8.07791
-8.05933
-8.04037
-8.02102
-8.50935
-8.50895
-8.50814
-8.50694
-8.50533
-8.50331
-8.5009
-8.49808
-8.49486
-8.49124
-8.48721
-8.48279
-8.47796
-8.47273
-8.4671
-8.46107
-8.45464
-8.44781
-8.44058
-8.43295
-8.42492
-8.4165
-8.40767
-8.39845
-8.38883
-8.37882
-8.3684
-8.35759
-8.34639
-8.33479
-8.3228
-8.31041
-8.29763
-8.28446
-8.2709
-8.25695
-8.24261
-8.22788
-8.21276
-8.19726
-8.18136
-8.16508
-8.14842
-8.13137
-8.11394
-8.09612
-8.07791
-8.05933
-8.04037
-8.02102
-8.50936
-8.50896
-8.50815
-8.50694
-8.50533
-8.50332
-8.5009
-8.49808
-8.49486
-8.49124
-8.48722
-8.48279
-8.47796
-8.47273
-8.4671
-8.46107
-8.45463
-8.4478
-8.44057
-8.43294
-8.42491
-8.41648
-8.40766
-8.39844
-8.38882
-8.3788
-8.36839
-8.35759
-8.34639
-8.33479
-8.32281
-8.31042
-8.29765
-8.28448
-8.27092
-8.25697
-8.24263
-8.2279
-8.21278
-8.19727
-8.18138
-8.16509
-8.14842
-8.13137
-8.11394
-8.09612
-8.07791
-8.05933
-8.04036
-8.02102
-8.50935
-8.50895
-8.50814
-8.50693
-8.50533
-8.50331
-8.5009
-8.49808
-8.49486
-8.49124
-8.48722
-8.48279
-8.47796
-8.47274
-8.46711
-8.46108
-8.45465
-8.44782
-8.44059
-8.43296
-8.42493
-8.4165
-8.40768
-8.39846
-8.38884
-8.37882
-8.3684
-8.3576
-8.34639
-8.33479
-8.3228
-8.31041
-8.29764
-8.28447
-8.2709
-8.25695
-8.24261
-8.22789
-8.21277
-8.19727
-8.18137
-8.16509
-8.14843
-8.13138
-8.11395
-8.09613
-8.07792
-8.05934
-8.04037
-8.02102
-8.50935
-8.50895
-8.50814
-8.50694
-8.50533
-8.50331
-8.5009
-8.49808
-8.49486
-8.49124
-8.48722
-8.48279
-8.47796
-8.47273
-8.4671
-8.46107
-8.45464
-8.44781
-8.44058
-8.43295
-8.42492
-8.4165
-8.40767
-8.39845
-8.38884
-8.37882
-8.36841
-8.35761
-8.34641
-8.33481
-8.32282
-8.31044
-8.29766
-8.28449
-8.27093
-8.25698
-8.24263
-8.2279
-8.21278
-8.19727
-8.18138
-8.16509
-8.14842
-8.13137
-8.11394
-8.09612
-8.07791
-8.05933
-8.04037
-8.02102
-8.50936
-8.50896
-8.50815
-8.50695
-8.50534
-8.50332
-8.50091
-8.49809
-8.49487
-8.49125
-8.48723
-8.4828
-8.47797
-8.47274
-8.46711
-8.46108
-8.45465
-8.44782
-8.44058
-8.43295
-8.42492
-8.4165
-8.40767
-8.39845
-8.38883
-8.37881
-8.3684
-8.35759
-8.34639
-8.33479
-8.3228
-8.31041
-8.29764
-8.28447
-8.27091
-8.25696
-8.24263
-8.2279
-8.21278
-8.19728
-8.18139
-8.16511
-8.14844
-8.13139
-8.11396
-8.09613
-8.07793
-8.05934
-8.04038
-8.02103
-8.50936
-8.50896
-8.50815
-8.50694
-8.50534
-8.50332
-8.50091
-8.49809
-8.49487
-8.49125
-8.48723
-8.4828
-8.47797
-8.47274
-8.46711
-8.46108
-8.45465
-8.44782
-8.44058
-8.43295
-8.42493
-8.4165
-8.40768
-8.39846
-8.38884
-8.37882
-8.36841
-8.3576
-8.3464
-8.33481
-8.32282
-8.31043
-8.29765
-8.28448
-8.27092
-8.25697
-8.24263
-8.22789
-8.21277
-8.19727
-8.18137
-8.16509
-8.14842
-8.13137
-8.11394
-8.09612
-8.07791
-8.05933
-8.04037
-8.02102
-8.50937
-8.50896
-8.50816
-8.50695
-8.50534
-8.50333
-8.50091
-8.49809
-8.49487
-8.49125
-8.48722
-8.48279
-8.47797
-8.47273
-8.4671
-8.46107
-8.45464
-8.4478
-8.44057
-8.43294
-8.42491
-8.41648
-8.40766
-8.39844
-8.38882
-8.3788
-8.36839
-8.35758
-8.34638
-8.33479
-8.3228
-8.31042
-8.29764
-8.28448
-8.27092
-8.25697
-8.24264
-8.22791
-8.2128
-8.19729
-8.1814
-8.16512
-8.14845
-8.1314
-8.11396
-8.09614
-8.07793
-8.05935
-8.04038
-8.02103
-8.50936
-8.50896
-8.50816
-8.50695
-8.50534
-8.50333
-8.50091
-8.49809
-8.49487
-8.49125
-8.48723
-8.4828
-8.47797
-8.47274
-8.46711
-8.46107
-8.45464
-8.44781
-8.44057
-8.43294
-8.42492
-8.41649
-8.40767
-8.39845
-8.38883
-8.37881
-8.3684
-8.3576
-8.3464
-8.3348
-8.32281
-8.31043
-8.29765
-8.28448
-8.27092
-8.25697
-8.24263
-8.2279
-8.21278
-8.19727
-8.18138
-8.1651
-8.14843
-8.13138
-8.11395
-8.09613
-8.07792
-8.05934
-8.04037
-8.02103
-8.50935
-8.50895
-8.50814
-8.50694
-8.50533
-8.50331
-8.5009
-8.49808
-8.49486
-8.49124
-8.48721
-8.48278
-8.47795
-8.47272
-8.46709
-8.46106
-8.45463
-8.4478
-8.44056
-8.43293
-8.42491
-8.41648
-8.40766
-8.39844
-8.38882
-8.37881
-8.3684
-8.35759
-8.34639
-8.3348
-8.32281
-8.31043
-8.29766
-8.2845
-8.27094
-8.25699
-8.24265
-8.22792
-8.21281
-8.1973
-8.18141
-8.16512
-8.14845
-8.1314
-8.11396
-8.09614
-8.07793
-8.05934
-8.04038
-8.02102
-8.50935
-8.50895
-8.50815
-8.50694
-8.50533
-8.50331
-8.5009
-8.49808
-8.49486
-8.49123
-8.48721
-8.48278
-8.47795
-8.47272
-8.46709
-8.46106
-8.45462
-8.44779
-8.44056
-8.43293
-8.4249
-8.41648
-8.40766
-8.39844
-8.38882
-8.37881
-8.3684
-8.35759
-8.34639
-8.3348
-8.32281
-8.31043
-8.29766
-8.28449
-8.27093
-8.25698
-8.24264
-8.22791
-8.2128
-8.19729
-8.1814
-8.16511
-8.14845
-8.1314
-8.11396
-8.09614
-8.07793
-8.05935
-8.04038
-8.02103
-8.50934
-8.50893
-8.50813
-8.50692
-8.50531
-8.5033
-8.50088
-8.49807
-8.49485
-8.49122
-8.4872
-8.48277
-8.47794
-8.47271
-8.46708
-8.46105
-8.45462
-8.44779
-8.44056
-8.43293
-8.42491
-8.41648
-8.40766
-8.39844
-8.38883
-8.37881
-8.36841
-8.3576
-8.3464
-8.33481
-8.32283
-8.31045
-8.29767
-8.28451
-8.27095
-8.257
-8.24266
-8.22792
-8.21281
-8.1973
-8.1814
-8.16512
-8.14845
-8.13139
-8.11395
-8.09613
-8.07792
-8.05934