/*--------------------------------*- C++ -*----------------------------------*\
  =========                 |
  \\      /  F ield         | OpenFOAM: The Open Source CFD Toolbox
   \\    /   O peration     | Website:  https://openfoam.org
    \\  /    A nd           | Version:  10
     \\/     M anipulation  |
\*---------------------------------------------------------------------------*/
FoamFile
{
    format      ascii;
    class       volScalarField;
    location    "2.6";
    object      gradTz;
}
// * * * * * * * * * * * * * * * * * * * * * * * * * * * * * * * * * * * * * //

dimensions      [0 -1 0 1 0 0 0];

internalField   nonuniform List<scalar> 
3000
(
-1.9762e-09
-3.68594e-11
-4.44089e-13
2.08722e-11
-1.9984e-11
-2.75335e-11
-4.66294e-11
8.88178e-13
-4.44089e-12
-1.50546e-10
-2.01617e-09
2.30926e-11
-6.70575e-11
-1.86517e-11
-6.70575e-11
-5.9508e-11
-5.55112e-11
-2.30926e-11
-5.9508e-11
-3.10862e-12
-2.02949e-09
-4.52971e-11
-1.68754e-11
-6.30607e-11
-7.90479e-11
-3.28626e-11
-7.32747e-11
-2.30926e-11
-1.47438e-10
-4.35207e-11
-2.02727e-09
3.06422e-11
-1.64313e-11
-1.73195e-11
-6.43929e-11
-1.52767e-10
-3.90799e-11
-1.74971e-10
-3.86358e-11
-6.03961e-11
-2.02194e-09
-4.44089e-11
-1.82077e-11
-1.64313e-11
-7.81597e-11
-7.32747e-11
-4.79616e-11
-1.54987e-10
-1.99396e-10
-5.9952e-11
-2.01794e-09
-3.15303e-11
-1.59872e-11
1.95399e-11
-7.81597e-11
-3.24185e-11
-7.41629e-11
5.32907e-12
-1.48326e-10
-4.44089e-11
-2.02194e-09
-3.4639e-11
-9.32587e-12
2.22045e-12
-2.70894e-11
-2.50022e-10
-1.44773e-10
-1.54987e-10
-1.43885e-10
-5.9952e-11
-2.02771e-09
-7.28306e-11
-1.59872e-11
-4.52971e-11
-2.9754e-11
-2.30926e-11
-5.41789e-11
-1.54987e-10
-7.54952e-11
-5.41789e-11
-2.01306e-09
-5.81757e-11
-2.13163e-11
-4.08562e-11
-6.66134e-11
-1.46994e-10
-4.44089e-12
-2.30926e-11
-2.10054e-10
-7.41629e-11
6.9722e-11
3.15303e-11
-1.68754e-11
-9.01501e-11
-3.33067e-11
-1.16795e-10
-1.79412e-10
6.21725e-12
-3.24185e-11
-4.57412e-11
-1.9309e-09
-5.24025e-11
2.93099e-11
2.44249e-11
-4.44089e-11
4.44089e-13
-7.10543e-11
-1.46105e-10
1.43885e-10
-1.18128e-10
-2.02993e-09
-4.61853e-11
-2.62013e-11
1.86517e-11
-9.72555e-11
-5.32907e-12
-2.66454e-11
-9.32587e-12
2.30926e-11
-1.15463e-11
-2.05613e-09
-7.10543e-12
1.33227e-11
-9.28146e-11
-3.9968e-12
-3.9968e-12
-5.28466e-11
-7.54952e-12
-2.51354e-10
-1.35891e-10
-1.99885e-09
2.35367e-11
-4.04121e-11
-2.84217e-11
-1.34115e-10
-2.53131e-10
-5.55112e-11
-1.68754e-10
-9.81437e-11
-5.9952e-11
-2.05791e-09
-7.10543e-11
2.93099e-11
-4.4853e-11
-7.81597e-11
-7.32747e-11
-9.9476e-11
-2.32703e-10
-2.51354e-10
-7.9492e-11
-1.99218e-09
7.54952e-12
1.42109e-11
-5.81757e-11
2.08722e-11
-1.0747e-10
-5.28466e-11
2.17604e-11
-2.5091e-10
-6.08402e-11
-2.05791e-09
-1.86517e-11
-4.44089e-13
-3.86358e-11
-9.28146e-11
-2.51354e-10
-2.19824e-10
-2.10054e-10
-2.20268e-10
-5.9508e-11
-2.03704e-09
-1.19904e-10
-4.04121e-11
-3.15303e-11
-3.24185e-11
-3.10862e-12
-6.57252e-11
-1.67866e-10
-8.74856e-11
-8.57092e-11
-1.94644e-09
1.46549e-11
-1.03473e-10
-3.86358e-11
-1.67422e-10
-2.5091e-10
-7.90479e-11
-8.74856e-11
-2.39808e-10
1.77636e-12
1.02141e-10
-4.70735e-11
-2.75335e-11
-8.9706e-11
-4.13003e-11
-1.79856e-10
-1.79856e-10
-1.66533e-10
8.88178e-13
-3.77476e-11
1.19904e-11
1.15463e-11
1.33227e-11
-3.55271e-11
8.88178e-13
2.26485e-11
0
-1.33227e-12
-5.32907e-12
0
-1.37668e-11
-4.39648e-11
2.35367e-11
1.19904e-11
5.32907e-12
3.86358e-11
3.4639e-11
-6.66134e-12
5.77316e-11
-5.68434e-11
-1.33227e-12
2.44249e-11
-4.08562e-11
-1.33227e-12
1.06581e-11
-7.4607e-11
1.9984e-11
-5.24025e-11
-2.84217e-11
-4.84057e-11
1.77636e-12
-3.77476e-11
1.33227e-12
3.77476e-11
-6.52811e-11
-2.26485e-11
0
2.88658e-11
0
1.59872e-11
0
1.37668e-11
2.35367e-11
4.44089e-11
1.00364e-10
7.4607e-11
-8.43769e-12
-8.88178e-11
4.88498e-11
7.9492e-11
9.76996e-12
2.44249e-11
-5.01821e-11
-2.66454e-11
8.12683e-11
2.79776e-11
9.10383e-11
0
-3.28626e-11
-9.14824e-11
-1.77636e-11
6.52811e-11
6.57252e-11
-1.02141e-11
2.57572e-11
9.10383e-11
-5.28466e-11
-8.92619e-11
4.44089e-12
8.03801e-11
4.44089e-13
-9.76996e-12
0
5.01821e-11
-7.10543e-11
-7.50511e-11
5.24025e-11
-1.37668e-11
5.24025e-11
5.24025e-11
4.88498e-12
7.63833e-11
-8.12683e-11
3.81917e-11
-1.9984e-11
-2.88658e-11
-5.28466e-11
1.46549e-11
-1.02141e-11
1.9984e-11
0
-1.19904e-11
6.88338e-11
1.86517e-11
1.82077e-11
-3.73035e-11
1.79856e-10
-1.74527e-10
2.9754e-11
5.32907e-12
-5.28466e-11
1.46549e-11
-5.81757e-11
0
-8.88178e-13
-3.41949e-11
3.24185e-11
1.45661e-10
0
-5.59552e-11
1.37668e-11
1.15463e-11
-5.68434e-11
6.21725e-12
0
-7.50511e-11
0
-1.37668e-11
-5.19584e-11
-7.19425e-11
-5.55112e-11
-5.4623e-11
-8.26006e-11
1.33227e-11
-7.50511e-11
0
0
-7.99361e-11
4.44089e-13
0
-4.44089e-13
0
0
0
4.44089e-13
0
5.72875e-11
-5.24025e-11
0
1.55431e-11
-4.44089e-12
0
-4.17444e-11
6.66134e-11
8.88178e-13
4.44089e-13
0
5.4623e-11
0
0
-5.55112e-11
-5.9508e-11
-8.74856e-11
5.4623e-11
-9.90319e-11
0
0
-8.43769e-12
4.44089e-13
4.44089e-13
2.9754e-11
-6.66134e-12
-7.10543e-12
1.33227e-11
-1.15463e-11
0
-1.9984e-11
3.24185e-11
-1.95399e-11
5.37348e-11
-3.41949e-11
5.90639e-11
3.19744e-11
-5.72875e-11
-8.88178e-11
-6.12843e-11
5.4623e-11
-6.88338e-11
5.4623e-11
0
0
0
0
-1.42109e-11
0
0
4.44089e-13
7.4607e-11
4.44089e-13
0
-6.17284e-11
0
4.44089e-13
5.41789e-11
1.33227e-12
0
0
1.86517e-11
-3.41949e-11
0
-3.10862e-11
-2.62013e-11
1.73195e-11
3.55271e-11
-2.44249e-11
4.88498e-12
1.52767e-10
-1.67422e-10
1.53211e-10
3.24185e-11
-6.66134e-12
-2.44249e-11
1.73195e-11
3.28626e-11
-3.59712e-11
1.59872e-11
-7.81597e-11
6.21725e-12
2.57572e-11
0
-2.44249e-11
1.5099e-11
7.19425e-11
-3.86358e-11
-1.11022e-11
-4.44089e-13
-1.9984e-11
4.61853e-11
-7.50511e-11
-4.26326e-11
-1.28786e-11
3.15303e-11
-3.5083e-11
-3.77476e-11
-2.53131e-11
2.62013e-11
3.24185e-11
-2.26485e-11
-5.86198e-11
3.33067e-11
-3.64153e-11
-4.08562e-11
6.30607e-11
-3.06422e-11
-1.01252e-10
-7.50511e-11
2.79776e-11
9.01501e-11
-2.93099e-11
-9.99201e-11
1.59872e-11
1.33227e-11
-4.44089e-13
4.13003e-11
-8.12683e-11
-1.03029e-10
-7.10543e-11
-6.66134e-12
-7.10543e-11
7.4607e-11
-1.86517e-11
-9.28146e-11
-6.08402e-11
-1.46549e-11
-8.92619e-11
4.44089e-13
-4.26326e-11
3.33067e-11
-2.53131e-11
-2.4869e-11
-6.92779e-11
3.9968e-12
-2.53131e-11
-3.59712e-11
1.24345e-11
6.75016e-11
-2.53131e-11
-6.83897e-11
-2.53131e-11
-4.17444e-11
6.17284e-11
-4.44089e-12
-8.88178e-13
-9.05942e-11
-8.12683e-11
4.44089e-13
0
-5.59552e-11
7.06102e-11
0
3.24185e-11
-4.9738e-11
-2.30926e-11
-4.61853e-11
-2.57572e-11
-2.44249e-11
-1.77636e-12
1.95399e-11
1.47882e-10
-3.9968e-12
4.44089e-13
0
4.57412e-11
-5.37348e-11
1.73195e-11
0
1.34115e-10
-1.45217e-10
-1.51879e-10
-6.21725e-12
-1.37668e-11
3.81917e-11
4.75175e-11
6.21725e-12
2.84217e-11
4.44089e-13
2.53131e-11
0
4.35207e-11
-1.95399e-11
4.35207e-11
4.52971e-11
1.02141e-11
0
0
-8.26006e-11
0
0
2.04281e-11
7.50511e-11
-6.12843e-11
-3.55271e-11
0
0
4.44089e-13
9.10383e-11
-5.68434e-11
0
9.99201e-11
4.08562e-11
9.14824e-11
8.79297e-11
1.06581e-11
0
0
2.04281e-11
0
8.88178e-13
2.04281e-11
7.50511e-11
8.70415e-11
5.32907e-12
4.88498e-12
1.59872e-11
0
2.04281e-11
5.4623e-11
-3.33067e-11
4.26326e-11
-2.35367e-11
4.84057e-11
4.39648e-11
1.02141e-11
4.44089e-13
0
7.4607e-11
0
-5.50671e-11
0
0
4.4853e-11
8.88178e-13
1.77636e-12
5.72875e-11
1.06581e-11
0
-5.50671e-11
0
0
7.50511e-11
-1.42109e-11
-5.37348e-11
8.88178e-12
-1.42109e-11
0
7.4607e-11
5.4623e-11
-2.39808e-11
2.04281e-11
-2.35367e-11
4.52971e-11
4.52971e-11
8.43769e-12
4.44089e-13
0
0
-4.44089e-13
0
3.41949e-11
4.44089e-13
5.4623e-11
5.50671e-11
6.21725e-12
-6.21725e-12
8.17124e-11
-2.93099e-11
2.22045e-12
1.66978e-10
-1.43441e-10
1.17684e-10
7.63833e-11
4.88498e-11
-3.4639e-11
-3.28626e-11
8.65974e-11
9.32587e-12
9.76996e-11
1.42109e-11
-1.86517e-11
5.55112e-11
9.32587e-12
-3.64153e-11
-6.21725e-12
6.57252e-11
8.88178e-11
1.00364e-10
4.21885e-11
6.66134e-12
1.9984e-11
1.9984e-11
3.64153e-11
-2.9754e-11
5.86198e-11
5.06262e-11
0
-9.41469e-11
-8.26006e-11
-6.83897e-11
3.19744e-11
-8.21565e-11
6.75016e-11
6.4837e-11
-1.64313e-11
-3.59712e-11
8.12683e-11
9.10383e-11
-5.06262e-11
-8.43769e-11
2.44249e-11
4.26326e-11
1.24345e-11
1.02141e-11
9.32587e-11
-8.79297e-11
9.9476e-11
7.72715e-11
2.22045e-11
-6.08402e-11
4.26326e-11
-3.15303e-11
1.86517e-11
6.21725e-11
3.9968e-12
4.04121e-11
-4.44089e-13
-3.24185e-11
1.9984e-11
-2.62013e-11
-4.44089e-12
-3.24185e-11
9.76996e-11
2.08722e-11
2.39808e-11
-5.06262e-11
-1.28786e-11
-6.03961e-11
-4.21885e-11
8.4821e-11
-4.26326e-11
-3.9968e-12
-2.53131e-11
-2.30926e-11
1.02141e-11
6.61693e-11
1.11022e-11
-1.64313e-11
3.19744e-11
-2.66454e-11
-7.10543e-11
-2.04281e-11
-5.28466e-11
-4.88498e-12
-5.4623e-11
1.86517e-11
0
2.44249e-11
-1.77636e-10
-7.54952e-12
0
-1.90958e-11
-1.02141e-11
0
4.88498e-11
-4.44089e-13
0
1.7808e-10
0
0
1.40776e-10
0
2.93099e-11
-3.86358e-11
4.4853e-11
4.44089e-13
4.44089e-13
1.03029e-10
0
0
-6.57252e-11
0
5.86198e-11
5.41789e-11
-9.32587e-12
-2.4869e-11
0
-2.08722e-11
4.44089e-13
0
-1.9984e-11
-7.4607e-11
1.95399e-11
1.42109e-11
4.08562e-11
1.33227e-12
7.06102e-11
-9.14824e-11
5.81757e-11
5.28466e-11
-8.03801e-11
-4.08562e-11
-4.44089e-11
-4.30767e-11
-1.02141e-11
-2.39808e-11
0
-2.04281e-11
7.10543e-11
0
5.06262e-11
-7.50511e-11
1.42109e-11
9.9476e-11
0
-6.92779e-11
0
5.4623e-11
4.44089e-13
0
-2.26485e-11
0
-3.41949e-11
1.24345e-11
0
5.19584e-11
1.15463e-11
-3.24185e-11
4.44089e-13
5.4623e-11
2.04281e-11
4.44089e-13
-8.88178e-13
-2.22045e-12
-5.68434e-11
-4.88498e-11
1.77636e-11
0
5.06262e-11
0
1.64313e-11
2.84217e-11
1.15463e-11
5.50671e-11
-7.99361e-12
2.84217e-11
0
-5.4623e-11
-5.4623e-11
2.04281e-11
3.81917e-11
-5.10703e-11
-4.44089e-11
-4.21885e-11
4.61853e-11
-2.66454e-11
-8.88178e-13
6.17284e-11
1.7808e-10
9.76996e-12
-1.77636e-12
-8.88178e-12
-9.90319e-11
2.00595e-09
-1.73195e-11
4.21885e-11
-4.21885e-11
1.74083e-10
-1.45217e-10
4.44089e-13
-1.33227e-12
-1.08358e-10
1.96732e-09
2.07478e-09
2.26485e-11
4.04121e-11
-1.77636e-12
5.10703e-11
-1.82077e-11
9.32587e-12
-1.11022e-11
4.44089e-12
1.97753e-09
2.04059e-09
-4.66294e-11
3.64153e-11
-9.32587e-12
-2.66454e-11
3.68594e-11
-1.06581e-11
8.70415e-11
5.28466e-11
2.05258e-09
2.02194e-09
-8.88178e-13
-4.30767e-11
1.52767e-10
6.43929e-11
2.43361e-10
6.9722e-11
7.59393e-11
9.32587e-11
1.97797e-09
1.99618e-09
-3.59712e-11
3.86358e-11
-3.10862e-12
-1.77636e-11
5.28466e-11
5.72875e-11
1.24345e-11
3.06422e-11
2.03748e-09
2.01039e-09
-6.35048e-11
4.39648e-11
3.55271e-12
-4.44089e-12
3.01981e-11
8.21565e-11
3.73035e-11
5.59552e-11
2.05702e-09
1.9913e-09
1.90958e-11
3.68594e-11
1.06137e-10
4.08562e-11
8.70415e-11
9.14824e-11
2.84217e-11
3.06422e-11
2.00862e-09
2.04992e-09
-1.77636e-11
6.83897e-11
1.04361e-10
8.17124e-11
8.21565e-11
-1.02141e-11
9.14824e-11
4.13003e-11
1.96954e-09
2.04281e-09
1.86517e-11
5.32907e-11
9.19265e-11
4.08562e-11
-1.77636e-12
2.34923e-10
8.57092e-11
9.9476e-11
1.93268e-09
2.11831e-09
9.59233e-11
4.17444e-11
2.79776e-11
1.56319e-10
3.28626e-11
1.64313e-11
3.55271e-12
1.75415e-10
-4.4853e-11
2.04592e-09
-4.75175e-11
8.74856e-11
2.26485e-11
2.22045e-12
-1.32783e-10
1.46105e-10
-1.33671e-10
7.10543e-11
2.00728e-09
2.11298e-09
-4.79616e-11
4.44089e-13
5.68434e-11
3.24185e-11
-1.55431e-11
2.30926e-11
4.39648e-11
1.03029e-10
1.94289e-09
1.96243e-09
2.93099e-11
1.03473e-10
7.90479e-11
7.32747e-11
5.9952e-11
5.28466e-11
1.0747e-10
7.32747e-11
2.08988e-09
2.01306e-09
6.21725e-12
1.73195e-11
6.43929e-11
7.32747e-11
1.52767e-10
1.33227e-12
8.74856e-11
4.44089e-11
2.0024e-09
2.01661e-09
2.93099e-11
3.10862e-12
7.81597e-11
7.32747e-11
2.66454e-12
-1.33227e-12
3.64153e-11
7.32747e-11
2.00462e-09
1.9762e-09
2.9754e-11
4.9738e-11
1.03029e-10
-1.33227e-12
-1.33227e-12
3.90799e-11
5.9952e-11
4.79616e-11
2.03171e-09
1.9611e-09
1.90958e-11
2.57572e-11
1.05693e-10
5.63993e-11
1.0747e-10
3.24185e-11
7.90479e-11
-1.77636e-12
2.03837e-09
2.05569e-09
2.84217e-11
6.57252e-11
9.37028e-11
5.50671e-11
2.70894e-11
7.4607e-11
1.59872e-11
-2.35367e-11
1.94644e-09
2.01794e-09
2.9754e-11
6.61693e-11
1.03029e-10
7.90479e-11
5.32907e-11
1.59872e-10
4.66294e-11
9.90319e-11
1.94023e-09
2.12541e-09
4.08562e-11
6.66134e-12
2.84217e-11
1.19016e-10
-1.44773e-10
0
1.48326e-10
1.54987e-10
-1.43441e-10
-1.60316e-10
-1.46549e-10
-2.22045e-12
-1.4877e-10
3.9968e-12
-1.75859e-10
-1.43441e-10
-1.46994e-10
-3.77476e-11
-9.68114e-11
-7.54952e-12
-3.95239e-11
-8.88178e-13
-2.84217e-11
-1.54543e-10
-7.54952e-12
-2.79776e-11
-8.88178e-13
-1.25677e-10
-9.28146e-11
-1.05249e-10
-2.57572e-11
-9.72555e-11
-2.57572e-11
-1.44329e-10
9.76996e-12
-2.57572e-11
-9.72555e-11
3.55271e-12
-9.76996e-11
-1.0747e-10
-1.9762e-10
-1.46549e-10
-1.90514e-10
5.77316e-12
-1.55875e-10
-2.26485e-11
-3.77476e-11
-4.92939e-11
-6.35048e-11
-1.69198e-10
-2.84217e-11
-6.30607e-11
-2.38476e-10
-1.33227e-12
-6.30607e-11
-2.84217e-11
-3.68594e-11
-1.44329e-10
-2.22045e-12
-5.41789e-11
-1.75859e-10
-1.86517e-11
8.88178e-13
-1.43441e-10
-3.28626e-11
-1.75859e-10
-1.06581e-10
3.10862e-12
-2.11386e-10
-9.9476e-11
-2.84217e-11
-4.30767e-11
-2.17604e-11
-1.33227e-12
-4.30767e-11
-1.33227e-12
-5.81757e-11
-1.98508e-10
-2.66454e-12
-5.9952e-11
-2.62013e-11
-1.47438e-10
-8.88178e-12
-1.48326e-10
-5.9952e-11
-8.88178e-12
-5.9952e-11
-8.88178e-12
-2.04281e-11
-1.99396e-10
-2.84217e-11
-1.62981e-10
-1.50102e-10
-1.43441e-10
-1.85185e-10
-1.33227e-12
-1.01696e-10
-1.45217e-10
-1.57652e-10
-1.4877e-10
-1.33227e-12
-1.61648e-10
-1.4877e-10
-1.50102e-10
-1.61648e-10
-1.33227e-12
-4.88498e-11
-4.88498e-12
-1.13687e-10
-1.49658e-10
-1.4877e-10
-1.46105e-10
-4.44089e-13
-1.48326e-10
-8.43769e-12
-1.46105e-10
-1.46105e-10
-5.77316e-12
-8.88178e-13
-4.35207e-11
-2.66454e-11
-9.68114e-11
-8.88178e-13
-1.48326e-10
-3.59712e-11
-2.84217e-11
-1.06137e-10
-1.1191e-10
-3.5083e-11
-4.70735e-11
-9.32587e-11
-1.82077e-11
-6.03961e-11
-2.06501e-10
-7.63833e-11
-3.9968e-12
-1.82077e-11
-5.77316e-11
-9.85878e-11
-1.19904e-11
-1.84741e-10
-7.63833e-11
-1.50546e-10
-1.33227e-12
-1.55875e-10
-3.01981e-11
-3.73035e-11
-8.4821e-11
-1.42109e-11
-1.5099e-10
-8.52651e-11
-1.37668e-11
-2.33591e-10
-8.70415e-11
-1.37668e-11
-8.52651e-11
-1.82077e-11
-2.2915e-10
2.4869e-11
-9.59233e-11
-1.94511e-10
-1.06581e-11
-4.39648e-11
-2.06501e-10
-8.12683e-11
-1.47882e-10
-9.68114e-11
-4.17444e-11
-2.11831e-10
-6.88338e-11
-6.35048e-11
-7.14984e-11
-8.57092e-11
-6.43929e-11
-1.33227e-11
-6.30607e-11
-1.16795e-10
-2.2915e-10
-1.55431e-11
-4.88498e-12
-7.50511e-11
-1.63425e-10
-2.17604e-11
-2.37144e-10
-9.32587e-12
-6.79456e-11
2.35367e-11
-2.26485e-11
-5.59552e-11
-1.55875e-10
-6.35048e-11
-2.50466e-10
-2.34035e-10
-2.49134e-10
-1.92735e-10
-6.30607e-11
-5.77316e-12
-2.06057e-10
-1.74971e-10
-1.77192e-10
-1.75415e-10
-1.76303e-10
-1.47882e-10
-1.74083e-10
-1.76303e-10
-1.75415e-10
-7.90479e-11
-1.45217e-10
1.77636e-12
1.19904e-11
-3.10862e-12
-1.04805e-10
-5.32907e-12
-1.45661e-10
1.70974e-10
1.77636e-12
8.88178e-13
-1.15907e-10
7.50511e-11
-8.79297e-11
-1.37668e-11
-1.06137e-10
-1.90958e-11
-8.88178e-11
6.66134e-12
2.9754e-11
-9.68114e-11
1.37668e-11
3.5083e-11
2.9754e-11
-1.28786e-11
6.03961e-11
2.13163e-11
-2.66454e-11
-1.28786e-11
0
9.68114e-11
-1.37668e-11
4.21885e-11
7.01661e-11
-1.24345e-11
9.50351e-11
-7.10543e-12
-4.4853e-11
-2.53131e-11
-4.61853e-11
8.88178e-13
5.55112e-11
-3.33067e-11
-6.17284e-11
-6.83897e-11
5.68434e-11
6.79456e-11
-9.50351e-11
-3.77476e-11
-6.83897e-11
-6.03961e-11
2.22045e-12
-3.5083e-11
-5.10703e-11
-4.52971e-11
-1.37668e-11
-6.66134e-12
-2.66454e-11
4.44089e-11
-4.44089e-13
8.79297e-11
-6.66134e-12
-3.33067e-11
9.50351e-11
-6.79456e-11
1.24345e-11
0
-2.04281e-11
-3.77476e-11
-2.04281e-11
7.54952e-12
3.37508e-11
0
3.86358e-11
4.26326e-11
-4.44089e-11
-1.37668e-11
-6.61693e-11
0
-8.17124e-11
0
-5.9508e-11
-1.86517e-11
0
-2.57572e-11
1.46549e-11
-5.37348e-11
-2.04281e-11
2.9754e-11
-9.50351e-11
1.05693e-10
-5.37348e-11
-1.9984e-11
8.88178e-13
-1.75859e-10
3.10862e-12
4.44089e-13
5.32907e-12
1.59428e-10
-1.46105e-10
0
3.9968e-12
-3.73035e-11
-3.15303e-11
2.66454e-12
0
-1.48326e-10
1.48326e-10
0
3.10862e-12
0
0
-2.75335e-11
5.19584e-11
2.70894e-11
1.9984e-11
0
-4.44089e-13
1.15463e-11
2.66454e-11
2.04281e-11
-4.61853e-11
-7.99361e-11
4.79616e-11
4.88498e-11
0
-2.26485e-11
-2.26485e-11
2.39808e-11
-8.92619e-11
0
-2.26485e-11
7.4607e-11
-8.57092e-11
4.26326e-11
3.10862e-11
-6.66134e-11
-6.88338e-11
-8.52651e-11
-6.83897e-11
-1.19904e-11
0
-1.64313e-11
0
5.4623e-11
0
5.4623e-11
5.4623e-11
0
-2.04281e-11
0
5.4623e-11
-6.21725e-11
1.9984e-11
4.13003e-11
7.99361e-12
4.17444e-11
2.75335e-11
8.57092e-11
-6.21725e-11
1.9984e-11
4.17444e-11
3.24185e-11
6.52811e-11
3.24185e-11
6.52811e-11
-8.88178e-13
-2.26485e-11
6.66134e-12
3.19744e-11
6.52811e-11
0
-6.88338e-11
-5.4623e-11
0
7.10543e-12
0
0
0
6.17284e-11
-3.24185e-11
0
6.08402e-11
-4.35207e-11
6.08402e-11
0
8.34888e-11
8.79297e-11
0
6.03961e-11
-4.35207e-11
6.08402e-11
5.59552e-11
2.53131e-11
1.86517e-11
2.57572e-11
-9.76996e-12
1.72751e-10
2.53131e-11
5.50671e-11
2.53131e-11
-9.76996e-12
-2.75335e-11
-1.77636e-12
1.52323e-10
-5.50671e-11
2.22045e-12
1.45661e-10
-1.59428e-10
1.45217e-10
-8.88178e-13
0
7.54952e-12
1.03029e-10
5.37348e-11
7.06102e-11
4.61853e-11
9.54792e-11
-5.68434e-11
-2.22045e-12
9.32587e-11
-2.66454e-11
0
-2.04281e-11
1.37668e-11
-6.03961e-11
-8.88178e-11
1.33227e-11
-7.37188e-11
2.66454e-11
-9.68114e-11
8.88178e-12
2.57572e-11
1.77636e-11
-7.10543e-12
-9.4591e-11
-4.17444e-11
6.03961e-11
-1.86517e-11
3.95239e-11
1.73195e-11
-6.79456e-11
9.01501e-11
7.86038e-11
8.88178e-11
-3.10862e-12
-2.53131e-11
1.06581e-11
8.79297e-11
3.33067e-11
7.86038e-11
-6.43929e-11
-3.28626e-11
6.9722e-11
7.50511e-11
2.62013e-11
-3.9968e-11
-3.4639e-11
-9.37028e-11
-6.75016e-11
-1.77636e-11
-3.9968e-11
3.33067e-11
0
7.4607e-11
3.01981e-11
1.68754e-11
-6.39488e-11
7.50511e-11
-4.13003e-11
0
-9.76996e-12
-8.21565e-11
4.44089e-11
-7.4607e-11
1.24345e-11
-6.88338e-11
-2.22045e-11
8.03801e-11
8.4821e-11
7.50511e-11
5.9508e-11
0
4.35207e-11
0
-3.28626e-11
-8.88178e-12
-6.35048e-11
7.10543e-12
4.92939e-11
-1.11022e-11
-8.88178e-12
1.95399e-11
0
1.74083e-10
-8.88178e-12
1.46105e-10
-2.75335e-11
-1.74527e-10
-9.32587e-12
-3.01981e-11
-1.72751e-10
0
3.15303e-11
0
0
1.48326e-10
0
-1.55431e-10
0
0
-1.48326e-10
2.66454e-11
-1.55431e-11
-2.75335e-11
3.95239e-11
0
0
-3.15303e-11
-2.75335e-11
8.30447e-11
1.86517e-11
7.10543e-11
-1.11022e-11
-1.68754e-11
-1.73195e-11
7.9492e-11
5.06262e-11
6.26166e-11
7.50511e-11
7.10543e-12
8.03801e-11
-6.35048e-11
1.02141e-11
-2.26485e-11
-3.01981e-11
6.66134e-11
7.4607e-11
6.12843e-11
0
-3.81917e-11
-7.10543e-12
-5.4623e-11
-5.81757e-11
3.10862e-12
-5.01821e-11
-1.64313e-11
2.84217e-11
7.54952e-12
7.4607e-11
-5.81757e-11
-3.19744e-11
1.59872e-11
2.22045e-11
-4.88498e-11
-4.4853e-11
-6.79456e-11
-7.10543e-11
-4.39648e-11
-3.33067e-11
2.84217e-11
4.88498e-12
-5.50671e-11
-4.39648e-11
-6.57252e-11
-3.68594e-11
3.77476e-11
-1.9984e-11
-4.39648e-11
-5.50671e-11
-4.39648e-11
2.22045e-11
0
3.81917e-11
1.55431e-11
-3.64153e-11
-6.83897e-11
0
2.53131e-11
0
2.04281e-11
1.42109e-11
0
5.19584e-11
-4.52971e-11
6.9722e-11
-6.03961e-11
6.66134e-12
1.95399e-11
-8.34888e-11
1.82077e-11
-2.79776e-11
-3.73035e-11
4.88498e-12
9.76996e-12
4.88498e-12
-1.9984e-11
-1.73195e-10
4.88498e-12
-3.73035e-11
4.88498e-12
1.54987e-10
2.04281e-11
-7.10543e-12
-1.06581e-11
-1.77636e-11
1.77636e-12
-3.9968e-12
7.10543e-12
-1.46105e-10
-8.43769e-12
3.10862e-12
7.54952e-12
-1.15463e-11
3.10862e-12
-6.9722e-11
0
-6.21725e-12
5.28466e-11
-5.77316e-12
-6.03961e-11
2.70894e-11
7.10543e-12
-9.76996e-12
7.54952e-12
6.08402e-11
7.54952e-11
1.55431e-11
8.61533e-11
-6.57252e-11
8.57092e-11
-1.59872e-11
2.08722e-11
-2.88658e-11
7.50511e-11
5.77316e-11
9.72555e-11
-5.9952e-11
-3.15303e-11
-3.86358e-11
-6.75016e-11
5.24025e-11
-8.34888e-11
-1.33227e-11
-6.66134e-11
-9.10383e-11
-4.21885e-11
6.4837e-11
-3.01981e-11
6.21725e-11
-4.57412e-11
5.59552e-11
9.72555e-11
3.28626e-11
-2.26485e-11
-5.77316e-12
4.84057e-11
-3.9968e-12
2.88658e-11
2.88658e-11
2.53131e-11
-4.9738e-11
-2.62013e-11
-5.19584e-11
-5.19584e-11
-5.81757e-11
-8.34888e-11
1.82077e-11
-7.10543e-12
6.21725e-11
9.32587e-12
9.76996e-12
0
-3.19744e-11
5.90639e-11
-5.10703e-11
5.41789e-11
7.4607e-11
-8.08242e-11
6.21725e-12
-7.50511e-11
-2.75335e-11
4.79616e-11
-2.04281e-11
3.33067e-11
-1.82077e-11
6.43929e-11
8.08242e-11
-3.68594e-11
-1.90958e-11
-4.30767e-11
-3.33067e-11
-7.54952e-12
-3.33067e-11
0
-1.24345e-11
-3.59712e-11
1.72751e-10
2.53131e-11
1.54543e-10
2.17604e-11
1.72751e-10
8.88178e-13
1.45217e-10
-4.44089e-13
-4.88498e-12
-4.44089e-13
0
-5.32907e-12
0
-4.88498e-12
8.88178e-13
-2.75335e-11
1.5099e-11
-8.88178e-13
-4.04121e-11
-6.21725e-12
0
3.19744e-11
-4.44089e-13
-8.30447e-11
-1.90958e-11
-4.88498e-11
-8.52651e-11
0
2.35367e-11
-5.72875e-11
-7.06102e-11
-8.61533e-11
0
-8.52651e-11
-5.72875e-11
-4.44089e-13
-2.04281e-11
-7.50511e-11
3.28626e-11
0
0
3.24185e-11
-8.88178e-13
5.41789e-11
0
0
5.77316e-11
-6.83897e-11
5.28466e-11
4.17444e-11
-3.28626e-11
-7.10543e-12
0
5.86198e-11
3.19744e-11
0
1.90958e-11
0
-4.35207e-11
2.66454e-11
7.50511e-11
1.82077e-11
0
2.4869e-11
-1.28786e-11
-2.04281e-11
4.30767e-11
6.83897e-11
4.21885e-11
-5.90639e-11
1.03473e-10
4.35207e-11
-1.9984e-11
4.44089e-11
8.43769e-12
0
-5.86198e-11
0
-5.81757e-11
2.26485e-11
0
-3.68594e-11
-4.44089e-13
-3.9968e-11
-4.75175e-11
-8.30447e-11
-7.99361e-12
2.53131e-11
3.06422e-11
-2.26485e-11
-9.54792e-11
2.44249e-11
3.77476e-11
3.06422e-11
-7.50511e-11
-2.4869e-11
0
-1.77636e-12
-2.04281e-11
2.88658e-11
1.70974e-10
-3.01981e-11
-2.44249e-11
-3.01981e-11
-1.53655e-10
4.30767e-11
9.32587e-12
1.33227e-11
8.17124e-11
1.5099e-10
3.9968e-12
1.54543e-10
1.48326e-10
5.72875e-11
1.48326e-10
1.56319e-10
1.59872e-10
-4.44089e-13
9.54792e-11
1.44329e-10
1.55431e-10
1.5099e-11
7.99361e-12
3.73035e-11
8.88178e-13
-4.44089e-12
2.39808e-10
-4.44089e-12
3.9968e-12
-4.44089e-12
1.44329e-10
1.45661e-10
3.95239e-11
1.44329e-10
-3.9968e-12
3.77476e-11
4.70735e-11
1.33227e-12
3.59712e-11
-2.84217e-11
6.88338e-11
7.4607e-11
3.9968e-11
2.30926e-10
1.24345e-11
5.68434e-11
1.65645e-10
7.14984e-11
2.46025e-10
8.12683e-11
1.46549e-11
1.81632e-10
-3.15303e-11
1.97176e-10
-2.4869e-11
-8.43769e-12
-4.88498e-12
1.68754e-10
6.66134e-12
1.46105e-10
2.12275e-10
2.12719e-10
6.75016e-11
5.77316e-12
6.88338e-11
5.77316e-11
2.08722e-10
7.37188e-11
2.08278e-10
6.26166e-11
2.12275e-10
1.15463e-11
-3.10862e-11
1.46105e-10
1.68754e-10
7.4607e-11
8.43769e-12
1.62093e-10
5.9952e-11
1.82521e-10
1.26121e-10
8.61533e-11
0
8.52651e-11
7.99361e-12
1.44329e-10
-1.77636e-12
1.68754e-10
2.53131e-11
-3.9968e-12
4.61853e-11
1.46549e-11
6.88338e-11
2.53131e-11
7.10543e-11
1.68754e-11
1.79412e-10
-1.46549e-10
1.77192e-10
3.68594e-11
-1.46549e-10
6.21725e-12
-1.45661e-10
1.54543e-10
4.44089e-13
4.66294e-11
-1.43441e-10
1.49658e-10
5.41789e-11
1.33227e-12
3.9968e-12
1.67422e-10
1.49658e-10
5.41789e-11
1.52323e-10
1.76303e-10
1.47882e-10
2.79776e-11
6.4837e-11
1.50546e-10
1.49658e-10
3.64153e-11
2.79776e-11
5.9508e-11
4.75175e-11
3.68594e-11
2.30038e-10
3.68594e-11
-2.22045e-11
3.68594e-11
2.5091e-10
2.3137e-10
-5.32907e-12
2.30038e-10
3.68594e-11
1.14575e-10
1.05249e-10
9.76996e-11
-7.99361e-12
-1.9984e-11
2.35367e-11
-7.99361e-12
6.92779e-11
1.76303e-10
9.32587e-11
5.37348e-11
1.51434e-10
9.32587e-11
1.55431e-10
-1.77636e-12
2.84217e-11
1.51434e-10
-8.88178e-13
1.51434e-10
-1.33227e-12
3.90799e-11
2.9754e-11
2.02061e-10
8.61533e-11
1.94067e-10
1.76303e-10
1.81188e-10
9.63674e-11
1.86517e-11
-1.28786e-11
7.32747e-11
1.55431e-10
2.84217e-11
1.50102e-10
7.81597e-11
1.47882e-10
3.9968e-12
7.32747e-11
1.55431e-10
2.01617e-10
7.4607e-11
8.03801e-11
2.21156e-10
7.9492e-11
2.14495e-10
2.00284e-10
4.84057e-11
5.32907e-12
5.41789e-11
2.75335e-11
2.30926e-10
-2.17604e-11
1.69198e-10
-2.4869e-11
8.30447e-11
1.46105e-10
-2.17604e-11
4.88498e-11
-2.4869e-11
7.9492e-11
3.41949e-11
1.46549e-10
8.88178e-13
1.64757e-10
1.46105e-10
-1.44329e-10
3.06422e-11
3.41949e-11
1.76748e-10
1.54543e-10
-1.43441e-10
-1.43441e-10
-1.5099e-10
-1.43441e-10
-1.43441e-10
-1.49214e-10
-1.43441e-10
-1.4877e-10
-1.43441e-10
1.45217e-10
-9.63674e-11
-2.88658e-11
-4.84057e-11
-2.79776e-11
-2.88658e-11
-4.35207e-11
-2.84217e-11
-4.35207e-11
-8.52651e-11
3.55271e-12
-1.33227e-12
-1.0747e-10
-3.68594e-11
-4.75175e-11
-4.75175e-11
-1.33227e-12
-4.75175e-11
-5.4623e-11
-4.75175e-11
-1.46105e-10
-2.35367e-11
-2.35367e-11
-4.30767e-11
5.77316e-12
5.77316e-12
-1.6831e-10
1.11022e-11
-2.02061e-10
1.24345e-11
-1.68754e-10
-4.66294e-11
-1.83409e-10
-3.68594e-11
-1.95399e-10
-1.95399e-10
-1.49214e-10
-1.95399e-10
-5.50671e-11
-1.95399e-10
-1.62093e-10
-2.84217e-11
4.88498e-12
-5.50671e-11
-1.77192e-10
-1.77192e-10
-1.49658e-10
-1.77192e-10
-1.36335e-10
-1.49658e-10
-1.33227e-12
-2.84217e-11
-2.84217e-11
-6.12843e-11
-2.57572e-11
-2.57572e-11
-1.49658e-10
-2.57572e-11
-1.4877e-10
-2.04281e-11
-2.66454e-12
1.5099e-11
-2.84217e-11
-3.64153e-11
1.77636e-12
-1.37668e-10
-4.66294e-11
1.77636e-12
-3.68594e-11
3.55271e-12
-4.44089e-12
-8.88178e-13
4.88498e-12
-5.68434e-11
-1.77192e-10
-1.77192e-10
-1.49658e-10
-1.77192e-10
-1.49214e-10
-1.77192e-10
-1.49658e-10
-2.22045e-12
-1.49658e-10
-1.63869e-10
-1.57652e-10
-1.57652e-10
-1.57208e-10
-1.57652e-10
-3.28626e-11
-1.57652e-10
1.49658e-10
-1.46105e-10
-1.75415e-10
-1.44329e-10
-1.46105e-10
5.32907e-12
-1.47438e-10
-1.46105e-10
-1.66533e-10
-1.46105e-10
1.44329e-10
-4.66294e-11
-8.88178e-13
-8.52651e-11
-4.70735e-11
-8.88178e-13
-4.35207e-11
-4.70735e-11
-3.9968e-12
-4.70735e-11
4.88498e-12
-5.77316e-12
-6.4837e-11
-1.33227e-12
-2.22045e-12
-6.30607e-11
-7.37188e-11
-6.30607e-11
2.08722e-11
-6.30607e-11
-1.51434e-10
-9.76996e-11
-3.01981e-11
-5.01821e-11
-6.88338e-11
-1.33227e-12
-1.94511e-10
-7.06102e-11
-1.94511e-10
-5.77316e-11
-1.28786e-11
-8.57092e-11
-2.33591e-10
-1.77636e-12
-2.34035e-10
-2.34035e-10
-2.34035e-10
-2.34035e-10
7.54952e-12
-2.34035e-10
-1.74971e-10
-4.70735e-11
-1.55431e-11
-4.08562e-11
-1.95399e-10
-1.95399e-10
-1.95399e-10
-1.95399e-10
-1.96732e-10
-1.49658e-10
-1.52323e-10
-1.42109e-11
-8.26006e-11
1.55431e-11
-1.15463e-11
-8.26006e-11
-2.11386e-10
-1.15463e-11
-1.45661e-10
-7.10543e-12
-1.73639e-10
9.76996e-12
-4.75175e-11
-9.72555e-11
1.33227e-12
-1.82965e-10
9.32587e-12
1.33227e-12
-8.43769e-12
-4.92939e-11
-1.62981e-10
-1.46549e-11
-5.37348e-11
1.02141e-11
-1.62537e-10
-2.33591e-10
-2.11386e-10
-1.62537e-10
-1.52323e-10
-2.11386e-10
-1.75859e-10
-1.75859e-10
-1.4122e-10
-4.88498e-12
-1.74971e-10
-1.46994e-10
-1.75415e-10
-1.74971e-10
1.43441e-10
-1.74971e-10
1.50102e-10
1.77636e-12
-2.75335e-11
1.33227e-12
1.77636e-12
-2.75335e-11
4.44089e-12
2.9754e-11
1.51434e-10
1.77636e-12
4.44089e-12
7.4607e-11
6.66134e-12
6.66134e-12
6.21725e-12
6.66134e-12
2.62013e-11
1.33227e-11
3.64153e-11
7.01661e-11
-1.45217e-10
-2.66454e-11
8.43769e-11
3.4639e-11
2.53131e-11
2.57572e-11
-4.66294e-11
2.57572e-11
7.37188e-11
2.57572e-11
1.50102e-10
-6.79456e-11
-2.4869e-11
-4.26326e-11
1.42109e-11
1.42109e-11
3.9968e-12
7.54952e-12
3.28626e-11
7.10543e-12
1.66978e-10
-4.88498e-11
1.33227e-11
3.4639e-11
-4.88498e-11
2.57572e-11
-1.9984e-11
-4.88498e-11
5.86198e-11
-4.88498e-11
1.42109e-11
2.75335e-11
1.77636e-11
-6.21725e-11
-5.72875e-11
7.54952e-12
-4.61853e-11
-1.86517e-11
-3.90799e-11
-8.43769e-11
-1.46994e-10
-6.79456e-11
2.66454e-12
3.33067e-11
2.75335e-11
0
-9.50351e-11
2.75335e-11
-4.61853e-11
2.75335e-11
-1.45661e-10
6.21725e-12
-6.75016e-11
-4.04121e-11
2.66454e-12
-3.41949e-11
-2.88658e-11
-5.55112e-11
3.4639e-11
2.22045e-12
-1.42109e-10
-3.9968e-11
1.77636e-11
-8.43769e-12
-5.72875e-11
7.10543e-12
-9.54792e-11
-1.90958e-11
-4.57412e-11
-5.72875e-11
1.33227e-12
-1.74527e-10
7.99361e-12
1.57208e-10
7.99361e-12
8.88178e-12
7.10543e-12
7.99361e-12
1.77192e-10
7.99361e-12
-4.44089e-13
3.10862e-12
3.41949e-11
0
3.10862e-12
-1.48326e-10
2.66454e-12
2.66454e-12
2.26485e-11
3.10862e-12
0
0
0
0
0
0
0
0
-6.83897e-11
4.17444e-11
0
-7.99361e-11
-2.26485e-11
2.22045e-12
-7.54952e-12
-2.26485e-11
4.57412e-11
-2.26485e-11
2.22045e-12
-2.26485e-11
-1.82077e-11
0
2.66454e-11
0
6.75016e-11
2.75335e-11
1.19904e-11
6.75016e-11
0
-4.44089e-13
0
5.4623e-11
0
-4.13003e-11
0
0
5.41789e-11
0
-4.13003e-11
0
0
-1.59872e-11
3.28626e-11
-8.9706e-11
-1.55431e-11
-1.59872e-11
-1.59872e-11
-1.64313e-11
3.15303e-11
-6.17284e-11
-5.32907e-12
-4.84057e-11
7.10543e-11
-7.99361e-12
-4.88498e-11
2.22045e-11
0
-4.88498e-11
-8.43769e-12
-4.88498e-11
5.59552e-11
0
4.13003e-11
7.90479e-11
-5.37348e-11
4.13003e-11
0
-5.32907e-11
-4.66294e-11
0
-5.32907e-12
-2.04281e-11
-2.04281e-11
0
-1.64313e-11
-1.9984e-11
6.08402e-11
-1.64313e-11
0
3.24185e-11
-6.66134e-12
2.35367e-11
1.45661e-10
0
2.26485e-11
1.45661e-10
2.35367e-11
2.26485e-11
0
2.26485e-11
-8.88178e-13
1.45217e-10
-4.88498e-12
4.4853e-11
-4.88498e-12
1.75859e-10
-3.9968e-12
-3.24185e-11
-1.5099e-10
-4.88498e-12
1.77636e-12
2.04281e-11
-8.43769e-11
3.01981e-11
2.04281e-11
-2.57572e-11
-7.10543e-12
1.37668e-11
3.55271e-12
1.37668e-11
-1.73195e-11
-1.95399e-11
1.55431e-11
0
2.04281e-11
1.55431e-11
8.88178e-13
2.08722e-11
4.44089e-13
2.08722e-11
0
6.75016e-11
-4.92939e-11
8.30447e-11
-7.77156e-11
8.43769e-12
-4.44089e-12
-2.04281e-11
7.54952e-12
-7.77156e-11
4.44089e-13
9.01501e-11
-4.17444e-11
-3.9968e-12
6.12843e-11
-4.17444e-11
6.66134e-12
4.92939e-11
-9.90319e-11
4.92939e-11
-2.17604e-11
-4.88498e-12
5.32907e-12
8.43769e-12
8.30447e-11
1.5099e-11
-4.21885e-11
4.17444e-11
4.57412e-11
7.9492e-11
1.46549e-10
8.12683e-11
2.30926e-11
6.21725e-12
-1.33227e-12
2.26485e-11
7.50511e-11
-4.88498e-12
3.41949e-11
-4.88498e-12
1.46994e-10
-1.15463e-11
3.33067e-11
2.79776e-11
-2.26485e-11
-2.75335e-11
9.50351e-11
2.13163e-11
-9.59233e-11
-2.26485e-11
4.44089e-13
2.66454e-11
4.88498e-12
8.43769e-12
8.30447e-11
1.5099e-11
7.54952e-11
4.17444e-11
0
7.99361e-11
1.46549e-10
1.90958e-11
2.75335e-11
-1.47882e-10
1.34115e-10
-9.76996e-12
1.33227e-12
2.9754e-11
-1.43441e-10
2.9754e-11
0
1.48326e-10
-3.41949e-11
-1.19904e-11
1.48326e-10
1.48326e-10
1.48326e-10
1.48326e-10
1.46105e-10
1.48326e-10
6.21725e-12
0
0
8.52651e-11
0
0
4.44089e-13
0
7.4607e-11
0
-1.19904e-11
0
8.03801e-11
-2.35367e-11
-4.44089e-12