/*--------------------------------*- C++ -*----------------------------------*\
  =========                 |
  \\      /  F ield         | OpenFOAM: The Open Source CFD Toolbox
   \\    /   O peration     | Website:  https://openfoam.org
    \\  /    A nd           | Version:  10
     \\/     M anipulation  |
\*---------------------------------------------------------------------------*/
FoamFile
{
    format      ascii;
    class       volScalarField;
    location    "2.6";
    object      gradTx;
}
// * * * * * * * * * * * * * * * * * * * * * * * * * * * * * * * * * * * * * //

dimensions      [0 -1 0 1 0 0 0];

internalField   nonuniform List<scalar> 
3000
(
-494.854
-5.11957
-0.0266255
-9.25724e-05
-2.42073e-07
-5.15588e-10
1.46105e-10
-3.68594e-11
0
1.4122e-10
-494.854
-5.11957
-0.0266255
-9.25724e-05
-2.42077e-07
-5.36016e-10
2.70894e-11
-1.82077e-11
-3.9968e-12
2.57572e-11
-494.854
-5.11957
-0.0266255
-9.25724e-05
-2.42095e-07
-5.42233e-10
0
1.77636e-10
2.79776e-11
-1.15907e-10
-494.854
-5.11957
-0.0266255
-9.25723e-05
-2.41914e-07
-6.03517e-10
4.44089e-13
-4.44089e-13
-1.50102e-10
9.76996e-12
-494.854
-5.11957
-0.0266255
-9.25724e-05
-2.42081e-07
-5.14699e-10
1.78968e-10
1.51879e-10
-1.73195e-10
-1.45217e-10
-494.854
-5.11957
-0.0266255
-9.25724e-05
-2.42049e-07
-5.41345e-10
-2.93099e-11
1.7808e-10
5.68434e-11
-1.71863e-10
-494.854
-5.11957
-0.0266255
-9.25724e-05
-2.41897e-07
-4.00124e-10
2.22045e-12
0
-1.72751e-10
1.42109e-11
-494.854
-5.11957
-0.0266255
-9.25724e-05
-2.42089e-07
-5.70655e-10
1.45217e-10
2.17604e-11
-1.66978e-10
-7.10543e-12
-494.854
-5.11957
-0.0266255
-9.25724e-05
-2.4194e-07
-6.0485e-10
-1.43441e-10
1.40776e-10
-3.41949e-11
-1.41664e-10
-494.854
-5.11957
-0.0266255
-9.25724e-05
-2.41985e-07
-4.02789e-10
-6.21725e-12
-1.47438e-10
-1.01696e-10
1.4877e-10
-494.854
-5.11957
-0.0266255
-9.25724e-05
-2.42122e-07
-5.42233e-10
1.74083e-10
4.88498e-12
-1.51434e-10
3.10862e-12
-494.854
-5.11957
-0.0266255
-9.25724e-05
-2.42118e-07
-5.24469e-10
6.39488e-11
-2.26485e-11
1.59872e-11
-1.06581e-11
-494.854
-5.11957
-0.0266255
-9.25725e-05
-2.42064e-07
-5.36904e-10
9.32587e-12
1.03473e-10
6.66134e-12
-6.08402e-11
-494.854
-5.11957
-0.0266255
-9.25724e-05
-2.4205e-07
-5.78648e-10
-2.22045e-11
0
-3.5083e-11
-4.88498e-11
-494.854
-5.11957
-0.0266255
-9.25725e-05
-2.42137e-07
-4.8539e-10
9.81437e-11
4.44089e-13
-7.81597e-11
-9.32587e-12
-494.854
-5.11957
-0.0266255
-9.25725e-05
-2.42101e-07
-5.36904e-10
9.32587e-12
1.03029e-10
7.10543e-12
-2.53131e-11
-494.854
-5.11957
-0.0266255
-9.25724e-05
-2.42149e-07
-5.16476e-10
9.76996e-11
0
-7.81597e-11
-5.28466e-11
-494.854
-5.11957
-0.0266255
-9.25724e-05
-2.42066e-07
-5.94635e-10
1.42109e-11
0
-6.66134e-11
6.66134e-11
-494.854
-5.11957
-0.0266255
-9.25724e-05
-2.42047e-07
-5.42233e-10
-1.86517e-11
-6.57252e-11
-8.39329e-11
4.79616e-11
-494.854
-5.11957
-0.0266255
-9.25724e-05
-2.42013e-07
-5.4845e-10
1.17684e-10
0
-1.54987e-10
2.4869e-11
-494.854
-5.11957
-0.0266255
-9.25724e-05
-2.42098e-07
-5.42233e-10
0
1.77636e-10
2.79776e-11
-1.15907e-10
-494.854
-5.11957
-0.0266255
-9.25725e-05
-2.42101e-07
-4.66294e-10
2.35367e-11
3.28626e-11
-7.54952e-12
1.77636e-12
-494.854
-5.11957
-0.0266255
-9.25725e-05
-2.42007e-07
-5.92415e-10
-2.66454e-12
-2.08722e-11
-9.99201e-11
9.99201e-11
-494.854
-5.11957
-0.0266255
-9.25724e-05
-2.42138e-07
-5.24469e-10
8.39329e-11
-4.26326e-11
-4.13003e-11
9.76996e-12
-494.854
-5.11957
-0.0266255
-9.25725e-05
-2.42109e-07
-5.36904e-10
1.9984e-11
4.44089e-13
-2.04281e-11
9.10383e-11
-494.854
-5.11957
-0.0266255
-9.25724e-05
-2.42098e-07
-6.15064e-10
1.00364e-10
-2.08722e-11
-2.4869e-11
1.04805e-10
-494.854
-5.11957
-0.0266255
-9.25725e-05
-2.4211e-07
-5.27134e-10
4.21885e-11
0
-2.22045e-11
2.22045e-11
-494.854
-5.11957
-0.0266255
-9.25724e-05
-2.42059e-07
-6.05294e-10
-1.9984e-11
0
-8.4821e-11
6.4837e-11
-494.854
-5.11957
-0.0266255
-9.25725e-05
-2.42152e-07
-5.16476e-10
1.9984e-11
-1.9984e-11
5.4623e-11
4.21885e-11
-494.854
-5.11957
-0.0266255
-9.25724e-05
-2.42074e-07
-5.41345e-10
7.10543e-12
3.41949e-11
2.70894e-11
-2.70894e-11
-494.854
-5.11957
-0.0266255
-9.25724e-05
-2.42064e-07
-5.42677e-10
1.50546e-10
-4.44089e-13
-1.50102e-10
9.76996e-12
-494.854
-5.11957
-0.0266255
-9.25725e-05
-2.42092e-07
-4.94715e-10
1.86517e-11
0
-3.5083e-11
6.66134e-12
-494.854
-5.11957
-0.0266255
-9.25725e-05
-2.42138e-07
-5.27578e-10
3.15303e-11
5.55112e-11
1.06581e-11
2.22045e-12
-494.854
-5.11957
-0.0266255
-9.25725e-05
-2.42109e-07
-5.13811e-10
2.88658e-11
0
-4.84057e-11
-7.54952e-12
-494.854
-5.11957
-0.0266255
-9.25724e-05
-2.42108e-07
-5.95524e-10
-6.52811e-11
5.81757e-11
9.01501e-11
-9.10383e-11
-494.854
-5.11957
-0.0266255
-9.25724e-05
-2.42047e-07
-5.26246e-10
-1.90958e-11
-2.08722e-11
-8.34888e-11
-2.84217e-11
-494.854
-5.11957
-0.0266255
-9.25724e-05
-2.42048e-07
-5.9508e-10
-8.21565e-11
5.81757e-11
9.01501e-11
-9.10383e-11
-494.854
-5.11957
-0.0266255
-9.25725e-05
-2.42191e-07
-4.71179e-10
7.54952e-11
0
-4.44089e-13
1.42109e-11
-494.854
-5.11957
-0.0266255
-9.25724e-05
-2.42114e-07
-5.74651e-10
2.30926e-11
-2.26485e-11
-7.77156e-11
3.81917e-11
-494.854
-5.11957
-0.0266255
-9.25725e-05
-2.42069e-07
-3.86802e-10
-1.9984e-11
-1.50102e-10
2.44249e-11
-2.44249e-11
-494.854
-5.11957
-0.0266255
-9.25724e-05
-2.42131e-07
-5.09814e-10
1.78968e-10
1.45661e-10
-1.73195e-10
-1.52767e-10
-494.854
-5.11957
-0.0266255
-9.25725e-05
-2.42182e-07
-4.65405e-10
8.34888e-11
-1.95399e-11
-6.35048e-11
2.62013e-11
-494.854
-5.11957
-0.0266255
-9.25725e-05
-2.4202e-07
-5.16476e-10
-8.30447e-11
-1.9984e-11
-2.04281e-11
1.9984e-11
-494.854
-5.11957
-0.0266255
-9.25724e-05
-2.42138e-07
-4.67182e-10
3.19744e-11
-9.99201e-11
2.66454e-11
8.39329e-11
-494.854
-5.11957
-0.0266255
-9.25725e-05
-2.42176e-07
-5.36904e-10
7.4607e-11
4.44089e-13
-7.50511e-11
7.4607e-11
-494.854
-5.11957
-0.0266255
-9.25724e-05
-2.42152e-07
-5.16476e-10
9.10383e-11
-1.9984e-11
-1.68754e-11
4.26326e-11
-494.854
-5.11957
-0.0266255
-9.25725e-05
-2.42123e-07
-5.36904e-10
7.4607e-11
4.44089e-13
0
7.4607e-11
-494.854
-5.11957
-0.0266255
-9.25725e-05
-2.42064e-07
-4.61853e-10
-2.66454e-11
0
-1.59872e-11
-5.90639e-11
-494.854
-5.11957
-0.0266255
-9.25725e-05
-2.42137e-07
-5.16476e-10
9.50351e-11
-1.9984e-11
-2.04281e-11
1.03029e-10
-494.854
-5.11957
-0.0266255
-9.25724e-05
-2.42129e-07
-5.42677e-10
2.53131e-11
-8.88178e-13
9.76996e-12
6.21725e-11
-494.854
-5.11957
-0.0266255
-9.25724e-05
-2.42094e-07
-3.65485e-10
-2.08722e-11
0
4.92939e-11
-1.71863e-10
-494.854
-5.11957
-0.0266255
-9.25725e-05
-2.42107e-07
-5.36904e-10
9.32587e-12
1.03473e-10
-4.21885e-11
-1.11022e-11
-494.854
-5.11957
-0.0266255
-9.25725e-05
-2.42099e-07
-5.36904e-10
7.72715e-11
0
-7.72715e-11
7.81597e-11
-494.854
-5.11957
-0.0266255
-9.25724e-05
-2.42047e-07
-4.5608e-10
-1.95399e-11
-9.10383e-11
7.10543e-12
7.77156e-11
-494.854
-5.11957
-0.0266255
-9.25725e-05
-2.42152e-07
-4.66294e-10
1.00364e-10
-4.44089e-13
-9.99201e-11
2.93099e-11
-494.854
-5.11957
-0.0266255
-9.25725e-05
-2.42191e-07
-5.16476e-10
7.72715e-11
-2.04281e-11
-2.22045e-12
9.32587e-12
-494.854
-5.11957
-0.0266255
-9.25724e-05
-2.42033e-07
-5.48006e-10
-4.84057e-11
7.50511e-11
3.19744e-11
-3.24185e-11
-494.854
-5.11957
-0.0266255
-9.25725e-05
-2.42087e-07
-5.08926e-10
-6.08402e-11
0
2.62013e-11
-4.17444e-11
-494.854
-5.11957
-0.0266255
-9.25725e-05
-2.42024e-07
-4.93827e-10
-3.19744e-11
4.88498e-11
-2.26485e-11
-3.28626e-11
-494.854
-5.11957
-0.0266255
-9.25725e-05
-2.42048e-07
-3.63265e-10
2.44249e-11
0
1.33227e-12
-1.53211e-10
-494.854
-5.11957
-0.0266255
-9.25724e-05
-2.42077e-07
-3.93463e-10
3.41949e-11
-1.4122e-10
-3.33067e-11
-1.33227e-12
-494.854
-5.11957
-0.0266255
-9.25725e-05
-2.42188e-07
-4.70735e-10
8.4821e-11
0
-8.39329e-11
8.88178e-12
-494.854
-5.11957
-0.0266255
-9.25725e-05
-2.42103e-07
-5.1692e-10
0
0
5.4623e-11
7.10543e-11
-494.854
-5.11957
-0.0266255
-9.25724e-05
-2.42047e-07
-5.24469e-10
-5.9508e-11
5.77316e-11
6.79456e-11
-7.99361e-11
-494.854
-5.11957
-0.0266255
-9.25725e-05
-2.42155e-07
-5.36904e-10
5.41789e-11
2.04281e-11
0
0
-494.854
-5.11957
-0.0266255
-9.25725e-05
-2.42148e-07
-4.61409e-10
3.86358e-11
-3.24185e-11
-6.66134e-12
1.5099e-11
-494.854
-5.11957
-0.0266255
-9.25725e-05
-2.42049e-07
-5.3646e-10
-5.4623e-11
4.44089e-13
5.41789e-11
2.04281e-11
-494.854
-5.11957
-0.0266255
-9.25725e-05
-2.42122e-07
-5.28022e-10
-2.62013e-11
5.4623e-11
5.86198e-11
-5.86198e-11
-494.854
-5.11957
-0.0266255
-9.25725e-05
-2.42049e-07
-4.61409e-10
-3.9968e-12
-5.4623e-11
-1.90958e-11
8.30447e-11
-494.854
-5.11957
-0.0266255
-9.25724e-05
-2.42129e-07
-5.42677e-10
2.44249e-11
3.5083e-11
8.88178e-12
-9.76996e-12
-494.854
-5.11957
-0.0266255
-9.25724e-05
-2.42117e-07
-4.44977e-10
1.74527e-10
-1.45661e-10
0
-6.66134e-12
-494.854
-5.11957
-0.0266255
-9.25724e-05
-2.42066e-07
-5.24913e-10
1.42109e-11
-1.42109e-11
0
1.42109e-11
-494.854
-5.11957
-0.0266255
-9.25724e-05
-2.42064e-07
-5.82645e-10
-1.55431e-11
-2.26485e-11
-6.43929e-11
6.43929e-11
-494.854
-5.11957
-0.0266255
-9.25725e-05
-2.42191e-07
-5.39124e-10
7.10543e-12
2.26485e-11
-7.54952e-12
6.70575e-11
-494.854
-5.11957
-0.0266255
-9.25724e-05
-2.42024e-07
-5.98188e-10
-7.50511e-11
7.50511e-11
2.66454e-11
-7.86038e-11
-494.854
-5.11957
-0.0266255
-9.25724e-05
-2.42026e-07
-5.94191e-10
-6.03961e-11
0
2.57572e-11
6.43929e-11
-494.854
-5.11957
-0.0266255
-9.25725e-05
-2.42105e-07
-5.28022e-10
-4.21885e-11
5.06262e-11
2.66454e-11
-5.41789e-11
-494.854
-5.11957
-0.0266255
-9.25725e-05
-2.42098e-07
-5.37348e-10
8.4821e-11
0
-6.26166e-11
0
-494.854
-5.11957
-0.0266255
-9.25725e-05
-2.42105e-07
-4.72955e-10
-4.26326e-11
-5.4623e-11
-1.59872e-11
8.65974e-11
-494.854
-5.11957
-0.0266255
-9.25724e-05
-2.42042e-07
-5.41345e-10
-7.99361e-12
1.7808e-10
-1.11022e-11
-1.60316e-10
-494.854
-5.11957
-0.0266255
-9.25725e-05
-2.41899e-07
-3.93463e-10
-1.42997e-10
0
-3.41949e-11
-1.41664e-10
-494.854
-5.11957
-0.0266255
-9.25725e-05
-2.42086e-07
-4.7029e-10
-1.86517e-11
-6.57252e-11
-8.39329e-11
4.79616e-11
-494.854
-5.11957
-0.0266255
-9.25725e-05
-2.42098e-07
-5.1692e-10
2.04281e-11
-1.9984e-11
-2.04281e-11
4.26326e-11
-494.854
-5.11957
-0.0266255
-9.25724e-05
-2.42139e-07
-5.37348e-10
8.39329e-11
-7.99361e-11
-2.4869e-11
-8.88178e-13
-494.854
-5.11957
-0.0266255
-9.25725e-05
-2.42152e-07
-4.66294e-10
7.50511e-11
0
-7.50511e-11
-5.01821e-11
-494.854
-5.11957
-0.0266255
-9.25725e-05
-2.42024e-07
-4.61409e-10
-1.64313e-11
-5.4623e-11
-6.66134e-12
3.77476e-11
-494.854
-5.11957
-0.0266255
-9.25725e-05
-2.42133e-07
-5.47562e-10
3.24185e-11
1.9984e-11
0
-1.9984e-11
-494.854
-5.11957
-0.0266255
-9.25724e-05
-2.42073e-07
-4.94271e-10
-2.66454e-11
2.04281e-11
8.70415e-11
-7.50511e-11
-494.854
-5.11957
-0.0266255
-9.25725e-05
-2.42132e-07
-5.16032e-10
7.10543e-11
3.81917e-11
-9.10383e-11
-3.81917e-11
-494.854
-5.11957
-0.0266255
-9.25725e-05
-2.42039e-07
-3.63265e-10
-2.84217e-11
-1.45661e-10
-7.99361e-12
-3.19744e-11
-494.854
-5.11957
-0.0266255
-9.25724e-05
-2.41985e-07
-5.4845e-10
4.44089e-13
-8.88178e-13
-1.09246e-10
3.81917e-11
-494.854
-5.11957
-0.0266255
-9.25724e-05
-2.42055e-07
-5.42233e-10
-2.75335e-11
-6.21725e-12
-4.88498e-12
1.80744e-10
-494.854
-5.11957
-0.0266255
-9.25724e-05
-2.42128e-07
-5.36016e-10
-4.44089e-13
2.75335e-11
0
-2.70894e-11
-494.854
-5.11957
-0.0266255
-9.25723e-05
-2.42084e-07
-4.4853e-10
1.28786e-11
-1.45661e-10
1.68754e-11
2.79776e-11
-494.854
-5.11957
-0.0266255
-9.25724e-05
-2.42081e-07
-5.41789e-10
0
3.41949e-11
0
-3.41949e-11
-494.854
-5.11957
-0.0266255
-9.25724e-05
-2.42074e-07
-5.66658e-10
2.44249e-11
6.66134e-12
1.33227e-12
1.82077e-11
-494.854
-5.11957
-0.0266255
-9.25724e-05
-2.42102e-07
-5.45786e-10
7.99361e-12
-7.99361e-12
-3.41949e-11
-2.62013e-11
-494.854
-5.11957
-0.0266255
-9.25724e-05
-2.42084e-07
-5.60885e-10
-7.54952e-12
9.76996e-12
-1.11022e-11
-1.68754e-11
-494.854
-5.11957
-0.0266255
-9.25724e-05
-2.42119e-07
-5.66214e-10
1.51434e-10
3.24185e-11
-1.51879e-10
1.45661e-10
-494.854
-5.11957
-0.0266255
-9.25725e-05
-2.41928e-07
-5.3646e-10
-1.46994e-10
1.47882e-10
1.47438e-10
-1.46549e-10
1.77636e-12
2.22045e-12
-2.66454e-12
3.9968e-12
-3.9968e-12
4.44089e-13
0
-2.22045e-12
5.77316e-12
-3.9968e-12
-7.99361e-12
-1.77636e-12
1.19904e-11
1.77636e-12
1.46105e-10
-1.11022e-11
-1.46994e-10
1.19904e-11
1.10134e-10
-4.44089e-13
-2.9754e-11
-3.28626e-11
1.77636e-12
-4.44089e-13
1.42553e-10
-1.19904e-11
-1.46105e-10
1.55431e-11
-1.77636e-12
-1.33227e-12
4.44089e-12
1.41664e-10
3.86358e-11
0
-6.79456e-11
2.22045e-12
2.84217e-11
-1.42997e-10
-6.66134e-12
0
1.60316e-10
0
-1.39e-10
1.4877e-10
5.32907e-12
-1.52767e-10
-4.44089e-13
4.88498e-12
1.42997e-10
-8.88178e-13
-2.93099e-11
1.73195e-10
4.44089e-13
-1.49658e-10
1.42553e-10
-1.19904e-11
3.9968e-12
1.5099e-11
-1.51434e-10
-1.33227e-12
1.86517e-11
-1.48326e-10
2.22045e-12
0
5.77316e-12
-4.44089e-12
-4.44089e-13
4.4853e-11
1.42997e-10
-4.08562e-11
-5.32907e-12
-1.02141e-11
1.70974e-10
1.64313e-11
1.77636e-12
-2.75335e-11
-1.46105e-10
0
0
5.77316e-12
1.77192e-10
7.54952e-12
4.44089e-13
1.47882e-10
-1.77636e-12
-1.02141e-11
-1.42997e-10
-1.42997e-10
1.43441e-10
4.44089e-12
1.0969e-10
0
-8.88178e-13
0
4.44089e-13
-2.22045e-12
1.77636e-12
-9.72555e-11
-2.66454e-12
9.99201e-11
-7.99361e-12
-1.77636e-12
1.56319e-10
1.77636e-12
1.77636e-12
-2.57572e-11
-1.47882e-10
2.75335e-11
1.10134e-10
-4.44089e-13
-1.15463e-11
5.4623e-11
1.82077e-11
1.37668e-11
-8.88178e-12
1.11022e-11
-2.04281e-11
1.73195e-11
1.37668e-11
-9.72555e-11
-9.05942e-11
3.5083e-11
8.88178e-12
0
9.50351e-11
2.35367e-11
-2.70894e-11
-9.05942e-11
2.66454e-11
9.50351e-11
-4.30767e-11
4.17444e-11
0
7.54952e-12
8.39329e-11
3.73035e-11
0
-2.53131e-11
-3.33067e-11
1.42109e-11
5.06262e-11
3.55271e-11
-3.24185e-11
-6.17284e-11
6.66134e-11
2.17604e-11
-2.66454e-11
3.15303e-11
2.66454e-11
-1.11022e-11
-3.9968e-11
0
3.68594e-11
2.66454e-11
1.68754e-11
-4.66294e-11
-2.70894e-11
-5.81757e-11
2.70894e-11
7.72715e-11
-1.95399e-11
3.5083e-11
5.77316e-11
7.10543e-12
4.66294e-11
-2.66454e-11
0
2.9754e-11
-5.32907e-11
-1.06581e-11
-1.19904e-11
-3.41949e-11
8.34888e-11
3.41949e-11
1.33227e-12
-7.86038e-11
-6.21725e-12
0
0
8.08242e-11
5.10703e-11
0
3.68594e-11
2.66454e-11
1.68754e-11
-4.66294e-11
0
-5.81757e-11
0
1.04805e-10
7.54952e-12
1.56319e-10
-1.5099e-11
-1.46994e-10
1.19904e-11
-1.59872e-11
1.5099e-10
1.59872e-11
-5.32907e-12
1.46549e-10
-2.9754e-11
-3.28626e-11
1.77636e-12
1.50546e-10
-5.77316e-12
-7.10543e-12
2.22045e-12
-1.40332e-10
1.46105e-10
-3.55271e-12
-4.04121e-11
-2.66454e-11
-4.13003e-11
2.66454e-11
9.50351e-11
-4.66294e-11
-2.70894e-11
-5.77316e-11
2.66454e-11
5.86198e-11
5.86198e-11
-9.05942e-11
2.9754e-11
3.33067e-11
-4.57412e-11
-2.70894e-11
5.50671e-11
7.32747e-11
-5.55112e-11
1.15463e-11
5.19584e-11
5.55112e-11
-2.57572e-11
3.41949e-11
7.99361e-12
-3.55271e-12
0
-2.57572e-11
-6.08402e-11
-6.08402e-11
8.88178e-11
-7.10543e-11
-8.88178e-13
0
-6.75016e-11
6.75016e-11
8.88178e-13
-8.88178e-13
8.88178e-13
-6.83897e-11
-6.57252e-11
-4.57412e-11
8.52651e-11
0
-5.24025e-11
-4.88498e-11
6.17284e-11
0
-4.57412e-11
4.88498e-11
9.76996e-12
4.44089e-13
-4.44089e-13
-2.22045e-11
1.24345e-11
6.83897e-11
0
-5.81757e-11
-2.26485e-11
6.12843e-11
7.4607e-11
-6.83897e-11
1.37668e-11
6.83897e-11
-7.23865e-11
-1.42109e-11
2.22045e-11
3.33067e-11
4.52971e-11
-7.54952e-12
2.04281e-11
0
-9.50351e-11
-2.26485e-11
4.44089e-13
3.15303e-11
4.17444e-11
4.44089e-11
-4.44089e-13
-3.55271e-12
-3.15303e-11
0
0
2.75335e-11
3.9968e-12
-3.15303e-11
0
0
2.75335e-11
3.10862e-12
4.44089e-12
-6.66134e-12
3.90799e-11
0
-3.90799e-11
1.50546e-10
-8.88178e-13
-1.42997e-10
-6.66134e-12
0
-4.26326e-11
-3.28626e-11
0
7.54952e-12
9.76996e-12
3.64153e-11
9.68114e-11
-8.52651e-11
-2.22045e-12
7.4607e-11
-1.24345e-11
-1.37668e-11
4.04121e-11
3.41949e-11
7.10543e-12
-9.32587e-12
0
1.82077e-11
1.28786e-11
-2.84217e-11
1.28786e-11
-1.28786e-11
2.44249e-11
1.28786e-11
-5.68434e-11
1.86517e-11
0
8.88178e-13
6.79456e-11
-5.41789e-11
-8.9706e-11
0
8.52651e-11
7.50511e-11
-8.61533e-11
-8.43769e-11
4.44089e-13
9.76996e-12
9.72555e-11
-4.44089e-13
0
-1.06581e-11
7.50511e-11
6.57252e-11
2.66454e-12
5.32907e-12
0
-1.46549e-11
2.04281e-11
1.64313e-11
-4.44089e-12
0
-2.44249e-11
7.50511e-11
1.33227e-11
-6.43929e-11
4.44089e-13
7.50511e-11
0
-8.57092e-11
-2.57572e-11
8.43769e-12
0
-2.22045e-11
-1.95399e-11
-6.4837e-11
-2.22045e-11
0
2.22045e-11
8.70415e-11
3.15303e-11
-7.10543e-12
5.15143e-11
0
-1.90958e-11
3.68594e-11
-7.4607e-11
1.82077e-11
4.13003e-11
-4.17444e-11
3.9968e-12
0
-1.19904e-11
2.88658e-11
1.28786e-11
1.43441e-10
-4.44089e-13
-1.44329e-10
1.45661e-10
-2.79776e-11
-6.21725e-12
7.54952e-12
3.33067e-11
0
1.42109e-10
1.40332e-10
-1.42553e-10
-1.39888e-10
1.42997e-10
-8.88178e-13
8.30447e-11
2.66454e-11
-7.32747e-11
0
7.50511e-11
-3.5083e-11
0
-4.92939e-11
-4.66294e-11
3.86358e-11
1.06137e-10
3.86358e-11
-1.82077e-11
-3.77476e-11
-6.83897e-11
1.82077e-11
-1.06581e-11
4.9738e-11
1.11022e-11
-6.83897e-11
-4.88498e-11
2.26485e-11
9.10383e-11
-7.4607e-11
-9.14824e-11
-2.22045e-11
0
4.84057e-11
7.10543e-12
-4.92939e-11
8.88178e-11
-8.88178e-13
0
8.88178e-13
-1.37668e-11
1.37668e-11
-7.50511e-11
0
7.50511e-11
-1.37668e-11
-4.44089e-11
5.68434e-11
7.37188e-11
0
-3.24185e-11
-4.88498e-12
-2.84217e-11
-6.4837e-11
5.68434e-11
1.28786e-11
2.04281e-11
0
0
-5.4623e-11
-7.50511e-11
7.50511e-11
5.4623e-11
0
-5.4623e-11
-5.24025e-11
2.04281e-11
0
7.50511e-11
6.88338e-11
-7.9492e-11
-1.42109e-11
8.39329e-11
1.33227e-12
-1.68754e-11
2.4869e-11
-2.35367e-11
0
-5.15143e-11
0
8.79297e-11
-5.15143e-11
1.5099e-11
0
0
1.95399e-11
-6.21725e-12
-3.73035e-11
0
0
1.51879e-10
3.10862e-12
-1.17684e-10
0
-3.73035e-11
1.77636e-12
-2.93099e-11
1.73195e-10
-1.46549e-11
-1.50102e-10
1.62093e-10
-1.19904e-11
0
1.5099e-11
-1.51434e-10
1.46105e-10
5.9952e-11
1.37668e-11
-3.37508e-11
0
3.5083e-11
-6.66134e-11
0
6.52811e-11
-2.70894e-11
1.33227e-12
8.88178e-12
4.44089e-13
-4.44089e-13
-6.75016e-11
8.12683e-11
5.77316e-12
1.28786e-11
-5.32907e-12
-4.44089e-12
4.88498e-11
-2.66454e-12
-4.61853e-11
-8.79297e-11
-2.30926e-11
9.85878e-11
4.21885e-11
-2.08722e-11
3.73035e-11
-3.95239e-11
-3.9968e-12
8.83738e-11
-1.77636e-12
3.55271e-12
-3.9968e-11
-7.14984e-11
3.01981e-11
2.22045e-11
0
0
1.15463e-11
-4.88498e-12
9.72555e-11
3.06422e-11
-4.75175e-11
-5.86198e-11
-4.88498e-11
-3.37508e-11
6.08402e-11
4.88498e-11
3.01981e-11
2.08722e-11
4.17444e-11
5.32907e-12
1.59872e-11
-8.12683e-11
-4.44089e-12
2.26485e-11
-4.44089e-13
3.24185e-11
-3.9968e-12
5.9952e-11
1.55431e-11
-3.24185e-11
-1.55431e-11
-5.4623e-11
8.4821e-11
8.4821e-11
-5.77316e-12
-2.22045e-12
0
7.54952e-11
-7.99361e-12
-2.4869e-11
-8.43769e-12
-5.01821e-11
5.28466e-11
3.86358e-11
-4.44089e-13
-1.55431e-11
-3.9968e-12
7.54952e-12
1.54987e-10
-2.08722e-11
0
-6.21725e-12
-1.76303e-10
1.82077e-11
0
-1.82077e-11
2.17604e-11
3.19744e-11
7.99361e-12
8.88178e-13
1.47882e-10
1.42553e-10
-1.62981e-10
-1.43441e-10
1.59872e-11
-4.88498e-12
1.46994e-10
8.79297e-11
-2.66454e-11
-1.82077e-11
2.66454e-11
3.5083e-11
-6.66134e-11
-2.66454e-11
6.4837e-11
0
-4.52971e-11
2.04281e-11
-4.88498e-11
-2.39808e-11
5.72875e-11
-4.44089e-13
1.33227e-12
1.33227e-11
-5.32907e-12
1.5099e-11
-7.41629e-11
-7.9492e-11
6.39488e-11
5.01821e-11
1.46549e-11
1.33227e-11
-2.79776e-11
-7.4607e-11
-5.06262e-11
0
6.43929e-11
-4.4853e-11
5.72875e-11
8.43769e-12
-1.90958e-11
6.4837e-11
3.68594e-11
-2.84217e-11
-6.52811e-11
-3.24185e-11
-9.76996e-12
8.88178e-13
-7.54952e-12
6.66134e-12
-1.90958e-11
-5.86198e-11
1.95399e-11
9.32587e-12
7.10543e-12
9.4591e-11
4.21885e-11
-2.35367e-11
-1.06581e-11
7.10543e-12
4.88498e-11
-5.81757e-11
-7.54952e-12
2.04281e-11
0
2.30926e-11
4.79616e-11
-1.59872e-11
1.55431e-11
0
-1.55431e-11
-4.26326e-11
7.90479e-11
8.4821e-11
-3.9968e-12
-2.22045e-12
3.9968e-12
5.15143e-11
-4.4853e-11
-3.28626e-11
-1.59872e-11
2.53131e-11
2.79776e-11
-7.50511e-11
-8.88178e-13
5.41789e-11
-6.92779e-11
-4.44089e-13
8.88178e-12
8.88178e-13
-2.93099e-11
-2.66454e-11
2.79776e-11
1.82077e-11
0
1.54543e-10
-3.55271e-12
-1.55431e-10
1.41664e-10
-2.4869e-11
-1.37668e-10
1.76303e-10
-7.10543e-12
-1.42109e-10
0
-2.22045e-12
1.43885e-10
-7.10543e-12
8.88178e-12
-9.14824e-11
-2.22045e-12
9.85878e-11
-1.33227e-11
-4.44089e-13
-4.84057e-11
6.21725e-12
1.55431e-11
-1.9984e-11
0
7.01661e-11
0
3.68594e-11
1.59872e-11
-6.79456e-11
-5.77316e-12
4.57412e-11
0
4.88498e-11
8.43769e-12
0
0
-1.95399e-11
-8.70415e-11
4.44089e-13
-4.44089e-13
5.24025e-11
4.39648e-11
3.15303e-11
1.55431e-11
-7.4607e-11
-1.59872e-11
8.52651e-11
4.17444e-11
1.95399e-11
-1.5099e-11
-6.21725e-12
5.28466e-11
6.03961e-11
-2.26485e-11
-7.54952e-12
2.26485e-11
-5.68434e-11
-6.88338e-11
0
5.72875e-11
-2.93099e-11
-8.4821e-11
0
1.5099e-11
0
-1.5099e-11
-3.9968e-12
7.14984e-11
6.57252e-11
1.64313e-11
-2.04281e-11
-8.88178e-12
3.24185e-11
7.4607e-11
-5.06262e-11
-1.9984e-11
7.06102e-11
-5.06262e-11
1.64313e-11
0
-3.68594e-11
1.86517e-11
7.4607e-11
-2.22045e-11
-2.39808e-11
2.26485e-11
4.9738e-11
-4.84057e-11
-6.21725e-11
-6.66134e-12
-2.9754e-11
3.77476e-11
-6.66134e-12
1.62537e-10
0
-3.64153e-11
1.79856e-10
-1.15463e-10
0
-3.10862e-12
-4.44089e-13
-2.30926e-11
1.77192e-10
7.54952e-12
-1.49658e-10
1.4877e-10
1.47438e-10
-1.6831e-10
-1.42997e-10
1.5099e-11
-4.44089e-12
3.9968e-12
1.03029e-10
0
-7.37188e-11
2.08722e-11
7.4607e-11
-2.84217e-11
-2.66454e-11
-4.9738e-11
-1.90958e-11
8.43769e-11
9.76996e-12
0
8.57092e-11
-4.44089e-13
-9.50351e-11
-2.70894e-11
8.34888e-11
-5.32907e-12
-4.13003e-11
1.06581e-11
-5.77316e-11
-1.15463e-11
1.03473e-10
8.88178e-11
-1.86517e-11
4.88498e-12
-7.50511e-11
-2.84217e-11
0
9.76996e-12
8.74856e-11
-1.02141e-11
3.55271e-12
9.05942e-11
-2.13163e-11
-1.11022e-11
3.10862e-12
0
8.88178e-13
-6.83897e-11
1.90958e-11
-7.54952e-12
-5.50671e-11
7.10543e-12
6.03961e-11
1.06581e-11
-6.43929e-11
1.28786e-11
8.12683e-11
1.77636e-11
2.04281e-11
7.72715e-11
5.77316e-12
-7.72715e-11
2.22045e-12
9.50351e-11
-1.03029e-10
0
5.10703e-11
-7.50511e-11
-1.03473e-10
1.59872e-11
0
6.66134e-12
1.59872e-11
1.9984e-11
8.4821e-11
-7.10543e-12
-4.9738e-11
1.59872e-11
9.50351e-11
6.43929e-11
5.77316e-12
-6.43929e-11
-1.01252e-10
7.54952e-11
5.81757e-11
6.21725e-12
-5.86198e-11
-1.02141e-11
7.54952e-12
3.19744e-11
-2.04281e-11
2.22045e-12
1.64757e-10
-3.15303e-11
-1.77636e-10
4.44089e-13
2.57572e-11
3.10862e-12
-3.68594e-11
1.10578e-10
4.79616e-11
0
9.76996e-11
-2.22045e-12
2.22045e-12
-9.72555e-11
-2.66454e-12
9.99201e-11
1.47882e-10
-1.48326e-10
-1.55875e-10
1.43441e-10
1.58984e-10
-1.42553e-10
-1.47882e-10
-2.70894e-11
4.44089e-13
1.77636e-11
1.66533e-10
-4.44089e-13
-1.66089e-10
0
1.77192e-10
1.66533e-10
-1.72307e-10
-6.66134e-12
1.77636e-12
-1.60316e-10
2.22045e-12
-2.70894e-11
-1.11022e-11
-2.88658e-11
1.24345e-11
1.64313e-11
-2.88658e-11
1.56319e-10
2.39808e-11
-1.72307e-10
1.66533e-10
2.9754e-11
6.66134e-12
-4.88498e-12
-1.47438e-10
1.42109e-10
-2.62013e-11
0
0
-1.32339e-10
0
1.54543e-10
2.22045e-12
0
1.49214e-10
-1.33227e-12
-1.45661e-10
-1.49658e-10
-2.66454e-11
-3.9968e-12
1.7808e-10
3.19744e-11
4.44089e-13
-2.70894e-11
0
2.04281e-11
-1.77636e-10
1.51879e-10
1.78968e-10
-1.52323e-10
0
1.62537e-10
0
-4.44089e-13
1.37224e-10
-1.46994e-10
-1.0969e-10
-8.88178e-13
-2.79776e-11
3.64153e-11
-2.62013e-11
2.22045e-12
2.66454e-12
-1.49658e-10
7.01661e-11
-3.01981e-11
-3.86358e-11
3.10862e-12
-2.75335e-11
1.74527e-10
-1.77636e-12
-1.33227e-12
-1.77636e-12
1.46994e-10
-1.44773e-10
-1.46105e-10
1.33227e-12
1.45661e-10
1.46105e-10
8.88178e-13
-5.77316e-12
2.22045e-12
0
-2.22045e-12
1.77636e-12
0
4.44089e-13
0
-1.46549e-10
-1.44773e-10
-1.11022e-10
-5.77316e-12
0
5.77316e-12
-3.55271e-12
0
0
0
1.46994e-10
1.42997e-10
7.10543e-12
8.88178e-13
-2.22045e-12
-4.44089e-13
0
0
-2.13163e-11
0
1.64313e-10
1.43441e-10
6.66134e-12
-6.21725e-12
-2.88658e-11
-2.30926e-11
1.74527e-10
1.33227e-12
4.44089e-13
-8.88178e-13
8.88178e-13
1.76303e-10
5.32907e-12
8.88178e-13
0
1.47438e-10
0
0
-1.56763e-10
0
1.57652e-10
1.33227e-12
-2.70894e-11
4.04121e-11
1.80744e-10
1.07914e-10
0
0
-1.95399e-11
0
2.04281e-11
1.33227e-12
-1.46105e-10
-1.42109e-11
0
1.15463e-11
1.5099e-10
0
-8.88178e-13
-4.44089e-12
0
1.55431e-10
-4.44089e-13
2.08722e-11
-3.10862e-12
1.35003e-10
-1.68754e-11
-1.38556e-10
2.08722e-11
-2.22045e-12
1.46549e-10
1.52767e-10
-1.75415e-10
-1.11022e-11
1.80744e-10
1.59428e-10
0
0
-4.44089e-13
0
1.33227e-12
1.33227e-12
-3.9968e-12
-4.44089e-13
6.21725e-12
4.44089e-13
0
0
-1.49658e-10
0
-8.88178e-13
-1.50546e-10
-1.11022e-10
-5.77316e-12
0
5.77316e-12
-3.55271e-12
0
0
0
1.46994e-10
1.42997e-10
-1.28786e-11
4.26326e-11
-8.88178e-13
2.62013e-11
-1.90958e-11
0
4.44089e-13
-5.72875e-11
1.93623e-10
2.33147e-10
-1.04805e-10
-3.4639e-11
5.86198e-11
-1.15463e-11
4.61853e-11
0
-7.4607e-11
0
7.28306e-11
4.44089e-11
3.28626e-11
-2.62013e-11
0
2.62013e-11
4.44089e-13
7.54952e-12
-3.37508e-11
0
3.41949e-11
-4.88498e-12
-3.37508e-11
1.15463e-11
-1.24345e-11
-1.15463e-11
4.61853e-11
0
-6.26166e-11
0
5.06262e-11
3.4639e-11
-2.66454e-11
1.42109e-11
-4.44089e-13
-1.37668e-11
2.70894e-11
-4.44089e-13
-5.77316e-12
2.66454e-11
1.55875e-10
1.49658e-10
2.39808e-11
-4.79616e-11
2.66454e-12
4.79616e-11
2.66454e-11
0
0
0
1.46549e-10
1.73639e-10
-2.08722e-11
-3.06422e-11
2.70894e-11
3.4639e-11
-6.61693e-11
0
3.15303e-11
0
1.78968e-10
1.44329e-10
-2.75335e-11
-6.57252e-11
0
3.90799e-11
2.70894e-11
-4.44089e-13
4.44089e-13
0
8.88178e-13
2.84217e-11
-1.49658e-10
-1.62093e-10
-8.88178e-13
6.66134e-12
0
0
-2.4869e-11
0
1.80744e-10
1.56319e-10
-1.75859e-10
3.55271e-12
2.9754e-11
1.47438e-10
0
-1.5099e-10
-1.82077e-11
0
1.64313e-10
1.46105e-10
0
-4.39648e-11
-4.52971e-11
8.92619e-11
0
-4.61853e-11
3.9968e-11
0
1.55875e-10
1.95399e-10
0
5.32907e-12
6.03961e-11
-6.21725e-11
-7.14984e-11
0
7.32747e-11
0
-7.54952e-12
5.59552e-11
6.17284e-11
4.26326e-11
-6.83897e-11
2.57572e-11
4.88498e-11
-6.83897e-11
4.44089e-13
1.11022e-11
1.82965e-10
2.21601e-10
0
8.4821e-11
0
-8.4821e-11
0
0
8.4821e-11
0
-2.53131e-11
5.9952e-11
0
4.66294e-11
0
-4.66294e-11
0
0
-1.9984e-11
4.61853e-11
6.39488e-11
-1.33227e-12
0
1.55431e-11
7.10543e-11
-8.65974e-11
-4.84057e-11
7.10543e-11
6.43929e-11
-4.44089e-13
-2.70894e-11
-1.11022e-11
-2.57572e-11
-8.57092e-11
4.61853e-11
4.88498e-11
-9.32587e-12
4.61853e-11
2.66454e-12
-5.32907e-11
-7.99361e-12
3.9968e-11
-2.26485e-11
1.37668e-11
7.10543e-11
-8.4821e-11
-4.84057e-11
7.10543e-11
5.81757e-11
-4.88498e-11
-2.13163e-11
3.77476e-11
8.88178e-13
1.68754e-10
-2.79776e-11
-1.40776e-10
-8.88178e-13
-2.70894e-11
1.69198e-10
0
5.32907e-12
1.74971e-10
-2.22045e-11
-5.77316e-12
2.84217e-11
-2.26485e-11
-8.88178e-13
5.68434e-11
1.46994e-10
-2.79776e-11
0
1.46105e-10
-2.04281e-11
-2.62013e-11
0
2.62013e-11
4.44089e-13
7.54952e-12
1.02141e-11
0
1.19904e-11
1.64313e-11
-7.54952e-12
2.79776e-11
0
-2.08722e-11
-2.57572e-11
0
4.61853e-11
0
1.48326e-10
1.68754e-10
-4.84057e-11
-1.33227e-12
3.95239e-11
8.34888e-11
-8.88178e-12
0
-4.44089e-12
0
1.67866e-10
1.54987e-10
-2.22045e-11
9.54792e-11
-7.50511e-11
-2.04281e-11
7.4607e-11
-7.50511e-11
1.68754e-11
0
6.66134e-12
9.81437e-11
-3.55271e-12
-7.4607e-11
-7.4607e-11
5.41789e-11
3.86358e-11
-2.57572e-11
0
-3.81917e-11
4.75175e-11
8.65974e-11
-6.66134e-12
5.37348e-11
2.75335e-11
1.33227e-11
-9.4591e-11
2.66454e-11
4.88498e-11
0
4.75175e-11
1.33227e-12
-2.9754e-11
-7.68274e-11
9.72555e-11
4.08562e-11
-9.76996e-11
-2.17604e-11
9.63674e-11
5.72875e-11
2.22045e-12
0
4.44089e-11
-3.5083e-11
-7.4607e-11
5.41789e-11
-1.06581e-11
-2.62013e-11
4.9738e-11
-3.81917e-11
4.75175e-11
8.65974e-11
-1.45661e-10
1.7053e-10
-1.77636e-12
-1.4122e-10
0
-1.77636e-12
1.45661e-10
0
2.22045e-12
1.47438e-10
-1.4122e-10
4.44089e-13
-1.33227e-12
-8.88178e-13
0
0
1.77636e-12
0
1.4122e-10
1.43441e-10
4.61853e-11
-4.39648e-11
-4.52971e-11
8.92619e-11
0
-4.61853e-11
-2.84217e-11
4.21885e-11
2.23377e-10
1.54099e-10
0
8.70415e-11
7.50511e-11
-8.70415e-11
-1.77636e-11
0
2.9754e-11
0
-2.75335e-11
5.9952e-11
8.83738e-11
4.26326e-11
-2.75335e-11
5.28466e-11
-6.66134e-12
-2.66454e-11
-1.19904e-11
-5.72875e-11
1.82965e-10
2.21601e-10
-5.4623e-11
-1.15463e-11
0
-4.30767e-11
5.4623e-11
0
-1.15463e-11
0
1.64313e-11
5.9952e-11
-8.43769e-12
-2.75335e-11
-4.84057e-11
2.70894e-11
0
0
2.75335e-11
0
2.84217e-11
5.50671e-11
7.10543e-11
5.50671e-11
-4.79616e-11
-5.59552e-11
0
0
5.59552e-11
0
3.68594e-11
9.23706e-11
1.59872e-11
-7.54952e-12
-4.88498e-11
1.19904e-11
4.44089e-11
-4.88498e-11
-4.39648e-11
0
3.41949e-11
3.41949e-11
-1.03473e-10
3.4639e-11
7.4607e-11
-1.04805e-10
2.79776e-11
7.50511e-11
-2.22045e-12
0
-2.75335e-11
-1.77636e-12
1.54543e-10
1.46105e-10
-1.49658e-10
3.55271e-12
0
-1.49658e-10
1.46105e-10
0
4.88498e-12
1.51434e-10
-2.75335e-11
-1.06581e-10
2.9754e-11
1.0747e-10
0
-1.5099e-10
-4.44089e-13
0
1.52767e-10
1.52323e-10
-7.77156e-11
-1.64313e-11
1.04361e-10
-2.93099e-11
-2.66454e-11
4.57412e-11
2.04281e-11
0
-7.10543e-12
-1.42109e-11
0
4.66294e-11
3.9968e-12
-4.44089e-12
-4.61853e-11
4.88498e-12
4.57412e-11
8.88178e-13
1.47438e-10
1.48326e-10
-2.93099e-11
1.46549e-11
1.06581e-11
7.99361e-12
6.43929e-11
-2.88658e-11
6.66134e-12
-5.68434e-11
1.6076e-10
2.33147e-10
0
8.88178e-13
2.84217e-11
-5.86198e-11
2.04281e-11
1.59872e-11
-8.92619e-11
0
8.39329e-11
2.75335e-11
4.17444e-11
-6.21725e-11
3.55271e-12
6.17284e-11
-8.65974e-11
0
8.79297e-11
0
1.48326e-10
1.52767e-10
2.57572e-11
-2.17604e-11
3.55271e-12
2.9754e-11
-1.86517e-11
0
7.54952e-12
0
1.6076e-10
1.52767e-10
-5.59552e-11
-3.68594e-11
4.08562e-11
-1.5099e-11
2.04281e-11
2.79776e-11
-9.63674e-11
1.37668e-11
9.81437e-11
2.30926e-11
5.68434e-11
-5.19584e-11
2.66454e-12
6.17284e-11
-1.86517e-11
0
-2.62013e-11
8.88178e-13
1.93623e-10
1.52767e-10
5.50671e-11
3.55271e-12
1.04805e-10
-3.55271e-12
-1.32783e-10
3.68594e-11
8.88178e-13
0
1.46105e-10
1.18128e-10
-2.70894e-11
-1.59428e-10
1.80744e-10
1.59428e-10
0
0
-4.44089e-13
0
1.33227e-12
1.33227e-12
2.75335e-11
4.26326e-11
-4.66294e-11
3.9968e-12
0
-4.61853e-11
4.66294e-11
4.08562e-11
1.37224e-10
1.42109e-10
0
6.21725e-11
-8.88178e-12
1.77636e-11
-7.19425e-11
-8.43769e-12
5.01821e-11
-8.88178e-13
1.83853e-10
1.61204e-10
1.9984e-11
4.44089e-12
4.75175e-11
-1.06581e-11
6.21725e-12