/*--------------------------------*- C++ -*----------------------------------*\
  =========                 |
  \\      /  F ield         | OpenFOAM: The Open Source CFD Toolbox
   \\    /   O peration     | Website:  https://openfoam.org
    \\  /    A nd           | Version:  10
     \\/     M anipulation  |
\*---------------------------------------------------------------------------*/
FoamFile
{
    format      ascii;
    class       volScalarField;
    location    "0.9";
    object      gradTz;
}
// * * * * * * * * * * * * * * * * * * * * * * * * * * * * * * * * * * * * * //

dimensions      [0 -1 0 1 0 0 0];

internalField   nonuniform List<scalar> 
47104
(
5.96396e-13
7.45367e-13
4.46795e-13
-3.71779e-12
1.48558e-13
0
-1.4871e-13
-1.48928e-13
-4.47202e-13
-1.49091e-13
-2.9813e-13
-1.48935e-13
-3.90774e-11
-1.98347e-11
1.03349e-12
-1.47641e-13
1.48019e-12
2.0207e-11
-2.53181e-11
2.25078e-11
-1.66788e-11
2.9715e-13
7.68123e-12
-8.77998e-12
-1.45444e-13
-1.38171e-11
7.60927e-12
1.47714e-13
-2.97142e-13
-1.04238e-12
-2.2156e-11
-8.88062e-13
0
-8.20592e-12
-1.70993e-11
1.78118e-11
-2.87925e-13
1.02429e-12
-2.2645e-11
-2.43855e-11
2.97099e-13
0
9.30815e-12
1.28244e-12
1.40674e-13
-6.18964e-12
-2.99233e-12
0
2.95259e-13
-2.55492e-11
-2.12434e-11
0
-2.03618e-12
1.42493e-13
6.89298e-12
1.40673e-13
9.68941e-12
-1.45438e-13
-5.07853e-11
-2.16876e-11
-2.12659e-11
9.76935e-12
-8.04824e-12
-2.30337e-11
2.22284e-11
5.6996e-13
0
9.51128e-12
-2.88622e-11
2.24537e-11
0
-5.94332e-13
1.04876e-11
7.31615e-12
4.75566e-11
-2.90868e-13
1.46325e-13
-4.43135e-13
1.48576e-13
-7.44609e-13
0
2.18928e-11
1.27768e-11
-7.4e-13
-2.95246e-13
-5.90501e-13
-8.88035e-13
-2.48116e-11
-1.4893e-13
-4.59124e-11
0
-2.98113e-13
-7.44526e-13
-4.4605e-13
1.48533e-13
-1.05461e-11
-2.2155e-11
7.44574e-13
2.1614e-11
-1.49094e-13
5.58629e-13
8.76985e-13
2.80742e-11
2.04441e-11
-1.1265e-13
4.84061e-13
0
0
-5.97376e-13
-3.17536e-13
-1.91505e-14
-2.65597e-12
2.1636e-11
5.15139e-12
-2.79025e-12
-7.41163e-13
-3.99531e-11
-7.16102e-12
1.54864e-11
2.22307e-11
-6.8681e-12
3.85193e-13
-1.63885e-11
-9.19344e-12
0
2.95676e-13
-4.37973e-11
5.94152e-13
-8.57667e-12
-7.46501e-13
-2.1635e-11
8.08663e-12
-6.34613e-11
-2.63504e-12
1.56938e-11
-1.53895e-11
5.82403e-13
3.97736e-11
2.37763e-11
-5.96804e-13
0
2.64273e-12
-1.18314e-12
0
-4.68592e-11
-1.72255e-12
-4.2388e-11
-2.93228e-13
-1.26999e-13
1.49159e-13
-4.47528e-13
2.27941e-13
5.91341e-13
2.90365e-13
-5.25376e-11
-8.60039e-13
-7.77604e-12
4.54228e-11
-1.39292e-11
0
4.47698e-13
-4.12155e-11
2.66334e-12
8.73597e-13
-3.83507e-11
-5.75999e-13
4.01891e-11
8.80686e-13
-7.82156e-12
-4.47643e-13
1.49339e-13
-7.63037e-12
-8.91228e-13
-5.89227e-13
-2.49238e-11
2.93044e-13
2.93557e-13
2.95743e-13
2.82841e-12
-7.46597e-13
2.98711e-13
-8.52886e-12
-3.57291e-12
-1.9505e-11
-7.10874e-12
1.32554e-11
-6.54062e-12
-1.38726e-11
-9.46402e-12
-2.44925e-11
-1.9143e-14
-2.48071e-11
2.89624e-11
1.4919e-13
-2.6184e-13
2.40318e-11
-7.64202e-13
7.46544e-13
2.16921e-11
3.82396e-14
2.28648e-11
1.33114e-13
2.69078e-12
4.34353e-12
4.50127e-14
-3.12852e-11
-5.47561e-13
4.27984e-12
4.27168e-13
1.94487e-14
-2.31817e-13
2.86451e-11
3.58554e-11
1.25606e-11
-4.07658e-11
1.49957e-12
-4.55044e-11
-2.8672e-11
3.43174e-11
-2.61485e-11
1.58733e-11
5.76604e-11
-6.75052e-11
2.3007e-11
3.19637e-11
2.34797e-11
7.52749e-11
1.57328e-11
-4.68537e-11
8.93997e-14
1.77349e-13
2.99028e-13
9.17231e-11
5.37693e-06
3.05749e-06
3.11841e-06
2.7701e-06
5.68062e-07
1.53619e-11
9.62071e-13
-4.10689e-13
0
1.79601e-11
3.05596e-06
-1.28849e-05
-1.32065e-05
-1.14304e-05
7.24475e-07
5.41587e-11
2.53514e-11
-2.32666e-12
-5.99818e-13
4.39096e-11
3.11816e-06
-1.32064e-05
-1.35518e-05
-1.1673e-05
7.32853e-07
7.26962e-11
2.1338e-11
2.15958e-11
-2.12558e-11
7.16324e-11
2.77065e-06
-1.14306e-05
-1.16731e-05
-1.02908e-05
7.06681e-07
3.98566e-11
-2.21461e-11
2.10372e-11
5.55545e-11
4.23568e-12
5.68109e-07
7.24568e-07
7.3289e-07
7.06666e-07
-3.40811e-08
9.62042e-12
-3.13855e-13
1.25456e-13
-2.92459e-11
-1.08119e-11
4.87939e-11
2.93474e-11
1.0904e-11
2.29465e-11
1.77368e-11
4.63634e-11
2.16531e-11
1.68665e-13
-9.15156e-13
2.47663e-11
4.38879e-13
2.1175e-11
3.34911e-11
2.18599e-11
-7.45527e-14
2.61332e-11
4.0866e-13
2.97698e-13
-3.43013e-13
-2.78515e-11
-2.08522e-11
3.11317e-13
-4.55535e-13
4.59053e-13
-2.25807e-11
3.57746e-13
0
-2.56674e-11
-5.31772e-11
1.27787e-13
-2.26295e-10
-2.38227e-10
-2.66289e-10
-3.21902e-10
-7.41839e-11
-4.51131e-11
-4.25784e-12
-2.18212e-11
-9.38271e-12
1.62478e-08
-2.27316e-05
-2.0136e-05
-2.00053e-05
-2.02723e-05
-2.20925e-05
-4.08854e-10
-3.19308e-11
3.11715e-13
-2.08309e-10
-2.27363e-05
-224.97
-293.062
-293.694
-292.173
-1.19886
7.51225e-08
-2.1086e-13
3.42204e-13
-2.54494e-10
-2.01352e-05
-293.061
-404.807
-406.29
-402.535
-2.33587
-2.38444e-08
1.11182e-12
5.79173e-13
-3.07462e-10
-2.00062e-05
-293.693
-406.29
-407.855
-403.941
-2.34595
-1.23222e-08
3.48532e-11
9.08491e-14
-2.51335e-10
-2.02792e-05
-292.173
-402.535
-403.941
-400.356
-2.33432
-5.2742e-08
3.14604e-13
6.34616e-14
-1.154e-10
-2.20575e-05
-1.1989
-2.33589
-2.34596
-2.33433
-0.403629
1.3788e-07
3.92069e-13
-4.91412e-14
2.96842e-13
-5.04632e-10
7.4695e-08
-2.4133e-08
-1.31223e-08
-5.79023e-08
1.38014e-07
-4.55244e-11
-1.18955e-13
-2.97683e-13
2.50362e-11
-2.87758e-11
4.84136e-13
-2.06735e-11
-2.16871e-13
3.33139e-11
-2.49756e-13
2.74955e-11
0
-2.25971e-11
2.77937e-12
-1.89819e-12
6.02593e-13
1.14686e-12
3.17568e-11
8.02511e-13
-4.2332e-12
-7.42217e-13
-1.93698e-14
-2.01962e-11
-1.48218e-12
3.06979e-12
4.34083e-09
1.08043e-08
1.07378e-08
1.04198e-08
-1.73673e-10
4.5321e-11
2.6691e-11
9.83575e-14
-4.71332e-11
-3.32683e-09
0.0125081
0.0246481
0.0248109
0.0242953
-4.70812e-05
2.3256e-09
2.37855e-11
5.45001e-13
4.31086e-09
0.0124868
1.63455e-05
3.30476e-12
8.42445e-13
1.07445e-08
0.0246441
2.60423e-05
8.69209e-13
2.47027e-11
1.07408e-08
0.0248051
2.64123e-05
2.65174e-12
5.63998e-13
9.91877e-09
0.0240273
2.44367e-05
2.35082e-11
1.99136e-12
-3.29139e-10
-4.79302e-05
-5.82896e-07
-4.07529e-12
1.30604e-11
2.96305e-13
2.3072e-09
1.63283e-05
2.60365e-05
2.63657e-05
2.32199e-05
-5.22092e-07
2.0859e-12
7.63371e-13
1.29189e-13
4.18101e-13
-2.45338e-11
2.5191e-11
-2.03555e-11
8.92173e-13
1.03777e-12
4.14744e-14
-1.8053e-12
0
1.22841e-12
-3.57004e-13
3.50494e-13
5.5373e-13
1.38197e-13
3.37202e-13
3.8943e-14
2.29275e-11
-2.75866e-13
-1.29363e-13
2.55649e-11
0
8.39775e-13
8.18088e-10
2.45158e-09
2.45336e-09
2.2836e-09
-9.33183e-12
-2.97749e-13
2.70109e-11
-4.29414e-12
8.16978e-13
-2.05228e-09
0.000494534
0.000782655
0.000761652
0.0007726
-7.49701e-07
1.27498e-10
3.20872e-11
1.21669e-13
7.55373e-10
0.000456001
9.43781e-07
-6.85466e-14
5.03962e-13
2.43542e-09
0.000777141
1.70288e-06
-2.40243e-11
-3.21495e-11
2.5193e-09
0.000763552
1.77701e-06
-3.42951e-11
5.55632e-13
2.34896e-09
0.00123704
1.51197e-06
1.7897e-13
-1.96907e-13
1.22471e-11
0.0004309
-4.31467e-08
2.98926e-11
3.32862e-14
2.97643e-13
2.43604e-10
9.71285e-07
1.70536e-06
1.80336e-06
3.23521e-06
-2.06458e-08
1.80239e-12
2.65106e-13
-9.03989e-14
-2.82244e-11
-6.4629e-13
-2.25117e-11
4.49909e-11
2.41894e-11
-3.20426e-11
-4.37762e-12
-2.73706e-11
-1.09867e-13
-6.33856e-13
-4.67076e-11
-3.49824e-13
-9.6044e-14
-3.17367e-13
2.52245e-11
-2.20203e-11
-2.77933e-13
6.79581e-13
7.43833e-13
2.04541e-11
-2.38232e-12
2.67727e-13
1.9125e-10
6.42212e-10
7.18251e-10
6.67601e-10
-1.20201e-10
4.26604e-11
1.68389e-13
4.32371e-13
-2.04361e-13
-2.74019e-09
0.000212918
0.000268967
0.000224275
0.000288687
-1.45615e-07
4.01949e-11
-2.40322e-11
-4.2033e-13
-3.12925e-11
-6.39879e-05
1.40331e-07
4.27173e-11
-4.52553e-13
4.87409e-10
0.000211511
2.51504e-07
2.97361e-13
2.34254e-13
6.49409e-10
0.00022666
2.66903e-07
-1.26758e-12
-2.73075e-11
7.60504e-10
0.000405907
2.19161e-07
-2.26387e-11
-2.23852e-11
-1.02932e-10
-1.24427e-06
-6.98908e-09
3.49492e-12
-1.30729e-11
-5.96606e-13
3.37912e-12
1.41574e-07
2.52151e-07
2.81154e-07
4.64825e-07
-2.58353e-08
-1.50566e-12
-3.86825e-13
4.07502e-13
2.84856e-13
-2.21986e-11
-2.46079e-11
2.57843e-11
2.9237e-13
4.97626e-13
1.22821e-13
-2.38153e-11
-3.87757e-14
-5.95434e-13
4.7258e-12
-5.27994e-13
-2.49414e-14
-6.35359e-12
-6.28836e-13
3.11637e-13
-7.70064e-13
2.26937e-13
0
9.74719e-14
4.17195e-12
-4.30619e-13
7.90104e-12
1.55758e-10
1.42693e-10
1.89443e-10
5.13809e-11
-8.54106e-11
-2.33698e-11
3.29803e-11
-4.27991e-11
-2.23343e-09
0.000163959
0.000212493
0.000163642
0.000233861
-1.45728e-07
5.37618e-11
4.76992e-13
-1.24448e-13
-5.24828e-10
0.00316142
-1.10762e-08
3.69249e-13
-8.62347e-14
-1.05402e-11
-2.81776e-05
-3.12733e-08
2.31732e-11
5.47246e-11
1.67001e-10
0.000162703
-3.34519e-08
2.32306e-11
-4.82767e-13
1.20737e-10
0.000239814
-2.92511e-08
-7.07407e-13
-2.23917e-13
6.58981e-11
-1.81297e-07
1.57255e-09
-2.95104e-11
1.45411e-13
-6.27124e-12
3.26333e-11
-1.55e-08
-3.31475e-08
-7.34008e-08
-1.31432e-06
6.04011e-08
-9.03945e-13
-3.73173e-13
-1.48836e-13
2.76655e-11
5.17068e-13
2.35412e-11
-3.04071e-11
-2.39248e-11
-3.7312e-13
4.08377e-12
-5.49527e-13
-5.9548e-13
1.48904e-13
4.38236e-11
1.80383e-13
-2.68347e-11
-2.74555e-13
-2.56616e-11
2.14999e-11
-3.6371e-14
2.99703e-11
-5.9559e-13
-3.00686e-11
-5.93173e-11
3.37334e-13
-2.8855e-10
-1.06835e-09
-1.14327e-09
-1.02996e-09
1.86396e-11
4.27113e-11
-4.81324e-13
-2.78079e-11
4.43257e-11
7.39853e-10
0.000100311
-6.14074e-05
-0.000126191
-2.27199e-05
3.68229e-08
-7.68797e-11
2.16963e-11
-2.30204e-11
1.7664e-10
-0.00109271
-8.4502e-07
5.88204e-12
1.72444e-14
-9.25987e-10
0.000148191
-1.6947e-06
-1.95573e-13
-2.27614e-11
-1.07169e-09
-0.000121053
-1.76082e-06
-1.29047e-12
2.79059e-11
-9.69713e-10
-2.14907e-05
-1.46777e-06
1.81019e-13
2.20991e-11
3.76627e-11
5.26926e-08
2.71565e-08
3.76088e-12
-2.14435e-13
5.64498e-11
-9.03048e-11
-8.46766e-07
-1.69392e-06
-1.73222e-06
2.81928e-07
-2.41532e-09
0
7.16343e-15
-2.97783e-13
6.15147e-15
2.51145e-11
2.95054e-11
-2.62387e-11
-2.32053e-13
-3.48867e-11
-3.03062e-11
-9.75179e-14
-1.48925e-13
-4.46784e-13
-4.29291e-12
2.87269e-13
2.20897e-11
5.90098e-12
2.07143e-11
1.491e-13
-5.00029e-13
2.96521e-13
-2.97877e-13
2.8687e-13
5.84239e-11
-1.8965e-12
-6.304e-10
-1.39766e-09
-1.19225e-09
-1.60053e-09
3.37292e-11
0
-3.56945e-12
1.2896e-13
-5.57822e-13
-3.59848e-09
-0.00790661
-0.0186819
-0.018895
-0.0183282
1.71363e-05
-3.13854e-10
-9.35229e-14
9.25107e-14
-6.30747e-10
-0.00740645
-1.19943e-05
-5.45524e-13
7.66987e-14
-1.40479e-09
-0.018615
-2.01794e-05
2.58618e-11
-2.23936e-11
-1.28497e-09
-0.0189064
-2.05083e-05
-2.23342e-11
-2.15472e-11
-1.68632e-09
-0.0183328
-1.8719e-05
-2.57894e-11
-3.50735e-15
5.94059e-12
1.68469e-05
2.4089e-07
-1.96236e-13
-4.8851e-13
-4.95758e-11
-2.99183e-10
-1.20017e-05
-2.01788e-05
-2.0487e-05
-1.84702e-05
2.2208e-07
-6.02334e-13
1.87283e-13
-2.9786e-13
4.9722e-13
-1.58378e-12
2.62739e-11
-1.37842e-11
2.33302e-14
6.56316e-13
4.81708e-13
-3.21996e-14
8.9377e-13
3.17219e-11
2.02556e-11
6.42184e-13
2.64621e-11
1.30068e-12
1.82249e-13
-6.45781e-14
-5.54432e-13
-2.97384e-11
1.48955e-13
5.53204e-11
-5.96154e-13
5.76372e-13
-6.69399e-11
-2.14771e-11
-2.4116e-11
-2.81959e-11
3.95445e-12
1.79128e-12
8.52498e-13
2.77419e-11
-5.43706e-11
-3.70836e-09
9.38797e-05
8.61745e-05
8.57051e-05
8.67239e-05
8.76146e-05
7.77912e-10
-4.50064e-11
2.36239e-11
-1.46773e-11
9.37748e-05
-7.92075e-08
-2.80494e-11
-2.17303e-13
-3.17756e-11
8.62508e-05
-9.59237e-08
-1.36994e-13
2.27324e-11
-7.24611e-11
8.54731e-05
-9.59082e-08
4.45017e-13
-5.27606e-13
-1.58608e-11
8.68093e-05
-9.53061e-08
-2.13626e-11
-4.53071e-11
4.60558e-15
8.773e-05
1.0556e-08
-3.8085e-11
1.57975e-13
-5.88107e-11
7.56114e-10
-7.92156e-08
-9.58777e-08
-9.58345e-08
-9.51012e-08
1.07679e-08
6.02208e-13
-3.01349e-13
-7.44725e-13
-2.60592e-11
-3.70732e-11
-4.99321e-11
-1.5111e-13
-8.85604e-14
3.38908e-11
1.37539e-14
-2.16887e-11
-1.48971e-13
1.48915e-13
-2.62583e-11
2.19056e-11
-2.17738e-11
-2.4931e-11
-1.98389e-11
-1.30525e-11
1.68007e-12
-7.49824e-13
-1.4895e-13
1.14579e-13
-2.98101e-13
9.37312e-11
-2.92924e-13
-8.78809e-13
-7.03665e-12
-5.8512e-13
4.22597e-13
-5.85324e-11
-2.00776e-11
8.41272e-14
5.42721e-11
-1.22628e-12
1.01946e-10
1.17604e-12
-2.35599e-12
5.87198e-13
-7.82909e-11
-3.97292e-13
-3.81161e-11
7.35984e-14
-5.15434e-11
-1.05691e-10
1.76018e-12
-2.70376e-13
3.42981e-11
0
1.24032e-10
-5.03063e-11
-2.57056e-11
-2.26139e-13
0
6.24568e-11
1.26594e-10
-8.53e-13
5.32673e-11
4.12531e-11
2.01902e-10
1.31539e-11
-3.75396e-12
-1.3983e-12
1.10534e-11
1.36393e-10
-1.47941e-12
1.95352e-13
-9.21807e-12
5.85553e-11
-1.55249e-11
1.714e-12
4.31647e-11
-4.16479e-11
7.11195e-14
1.85764e-12
0
-2.59901e-11
1.48938e-13
2.21958e-14
1.49434e-12
-2.6015e-11
2.12065e-11
5.80261e-14
-5.34719e-13
2.60178e-11
-8.65335e-13
-1.10136e-13
-3.17162e-11
-2.12363e-11
-6.16368e-13
2.5522e-13
-1.84638e-12
-3.53238e-13
2.11379e-11
-2.19085e-11
1.7983e-13
-1.93487e-14
-2.60468e-11
5.96242e-13
-9.17251e-11
2.92849e-12
-5.85626e-13
-3.31169e-11
2.92439e-13
-2.33638e-13
1.02747e-10
-1.19267e-12
4.64956e-13
-5.18843e-13
-1.83876e-12
4.68473e-12
9.36581e-11
5.90812e-13
8.89059e-11
2.00596e-12
-7.66857e-11
2.31097e-11
-2.03739e-11
5.2687e-11
2.59834e-13
-1.45759e-13
-3.28787e-11
9.36985e-13
-2.92816e-13
2.34184e-10
-5.95988e-12
-2.42644e-11
-7.04418e-14
-2.93059e-13
2.8356e-11
-5.85468e-11
-1.13464e-12
5.91352e-13
-4.06475e-11
-6.77031e-11
1.05284e-12
2.09935e-11
-6.12614e-12
-1.05738e-11
-2.65709e-13
5.81353e-11
3.4431e-11
8.41263e-14
4.83845e-11
8.78701e-13
3.4532e-13
-4.29988e-11
4.27057e-11
2.50707e-13
-2.26587e-12
1.96442e-13
-3.0265e-11
8.93536e-13
2.62066e-11
6.76013e-11
5.15256e-11
-3.14186e-11
1.49566e-14
-3.02225e-13
3.04457e-11
2.1826e-11
-1.23032e-12
-7.44475e-13
2.70354e-11
-2.18565e-11
4.42209e-14
2.63304e-11
2.87039e-13
1.28337e-11
-2.3032e-13
-1.50549e-11
-7.89333e-12
2.67449e-13
0
-1.1401e-12
4.83081e-11
5.82796e-11
4.10367e-11
2.92478e-13
-5.02874e-13
-4.51026e-11
2.36945e-11
1.43895e-13
-5.83752e-11
-6.12541e-13
5.41972e-12
-1.45404e-12
-8.27373e-11
-5.88924e-13
-8.59982e-11
7.66529e-11
1.6296e-11
2.8228e-11
5.85467e-13
1.13856e-12
3.93971e-13
-1.18138e-13
-1.27308e-11
0
6.45656e-13
-1.15732e-11
3.62648e-14
-4.86324e-14
-1.17243e-12
0
4.77227e-11
3.60571e-13
-3.19011e-11
-2.10572e-11
7.5966e-11
2.98021e-12
3.04068e-11
1.28788e-12
-1.37874e-12
9.83162e-11
-9.66488e-12
-7.33952e-13
9.82902e-12
-4.68885e-11
-1.03294e-12
-1.28723e-12
-4.98306e-11
-6.81096e-11
-7.4272e-12
4.88669e-14
-1.20558e-12
2.57349e-11
1.4891e-13
-2.88815e-13
-3.30547e-13
-1.49093e-12
-3.67293e-13
-5.62359e-14
6.54308e-13
-2.64398e-11
6.57213e-13
-2.99352e-11
-2.97787e-13
6.78429e-13
-2.30338e-14
-2.04199e-13
9.8125e-14
-1.94966e-13
-2.09086e-11
2.25805e-11
-1.38123e-13
-1.29578e-13
-3.5447e-13
-5.96202e-13
-3.46043e-13
-5.15502e-11
-6.09066e-11
-5.86164e-13
1.90092e-11
-7.98945e-12
5.97323e-13
7.33256e-13
-5.4033e-13
5.9289e-11
1.22797e-12
-1.0449e-13
-5.89841e-13
5.90948e-13
7.06675e-12
-1.05773e-10
2.7444e-13
-2.93715e-13
-3.14745e-12
-5.12278e-11
3.53242e-11
4.84536e-11
6.80985e-12
-6.9188e-13
1.75693e-12
-1.05248e-10
6.77425e-11
2.44249e-11
-3.33492e-14
-5.71471e-11
1.18188e-12
-4.70628e-11
-3.86991e-12
-1.41064e-13
1.95919e-11
0
-5.57223e-11
1.06727e-13
2.58613e-12
5.17205e-13
-4.61822e-12
-1.49745e-11
1.87535e-13
-5.40811e-14
-2.68862e-12
-3.5157e-13
1.06009e-12
-1.06726e-11
6.87374e-11
2.07661e-11
4.0533e-14
-5.42516e-11
3.0212e-11
-4.4673e-13
-3.6702e-14
-3.3345e-11
-3.04664e-11
9.14299e-12
-2.40056e-11
1.27947e-12
-5.20942e-13
2.18408e-13
-2.9638e-11
7.4452e-13
-7.30244e-14
-1.67561e-13
-1.4242e-13
-1.36345e-13
-2.54289e-13
-2.36247e-13
-3.53754e-13
4.21966e-11
8.04306e-12
-2.61355e-11
1.19218e-12
-3.10399e-13
2.63561e-12
0
0
-1.93008e-11
8.3558e-12
2.98561e-13
4.63692e-13
-3.91139e-12
-1.02169e-12
6.14976e-13
9.9335e-11
1.14912e-10
0
5.88382e-13
-1.22202e-12
2.82509e-12
2.15955e-11
-2.81541e-11
1.14777e-10
1.38589e-12
-4.85625e-11
4.46034e-14
-2.21973e-11
1.17118e-12
1.17859e-12
3.36903e-13
-5.62268e-13
-5.13963e-13
1.02565e-10
9.20944e-11
-8.0447e-14
7.32545e-13
-3.04234e-13
-6.34514e-11
5.29442e-12
5.1627e-11
-9.73056e-14
1.9742e-13
5.39052e-11
-1.30467e-10
2.91404e-11
1.11537e-13
6.50727e-13
1.19453e-12
1.52886e-11
8.51614e-13
6.16284e-11
-2.16175e-12
3.79768e-11
-4.08618e-11
1.13869e-10
1.95644e-13
2.7844e-13
2.76492e-11
1.2778e-13
-2.03168e-11
1.32076e-13
4.39786e-13
-3.20445e-13
1.28696e-11
-1.942e-14
2.97902e-11
4.46798e-13
-2.19009e-13
-4.54987e-13
2.01375e-13
-1.2205e-13
1.3786e-13
1.21013e-13
-6.58452e-12
3.05462e-14
-5.9783e-12
2.37291e-11
4.61924e-11
-1.48752e-12
-1.46644e-12
5.87719e-13
0
-2.93392e-13
-1.47122e-12
8.95401e-13
-3.33873e-13
3.23675e-14
1.21437e-13
-6.10411e-13
4.87367e-11
-1.13441e-10
-5.91663e-13
-9.91455e-11
-1.18849e-10
-4.02879e-12
5.8806e-13
5.72795e-11
-6.42234e-11
-1.1663e-10
6.24944e-11
2.64818e-11
-5.09921e-13
-1.76306e-12
-2.95416e-12
-4.3246e-11
-3.67305e-14
-6.88371e-13
-4.32333e-11
1.18331e-12
4.92195e-11
3.98173e-11
-5.72305e-13
6.33692e-11
-5.90101e-13
9.47463e-13
-6.37563e-13
2.52769e-11
-5.35781e-11
8.35957e-11
3.82731e-11
-3.02316e-13
1.36486e-13
-5.96863e-13
-1.31677e-11
6.03004e-11
7.22547e-11
-3.62223e-13
-5.16473e-11
4.06963e-11
-5.6569e-11
2.82028e-13
-5.76403e-13
-2.56733e-11
-2.06694e-11
-3.2051e-13
2.17477e-11
2.37756e-11
-6.84311e-13
7.55812e-13
6.04779e-13
3.08395e-11
1.48953e-13
6.05093e-13
7.84275e-13
1.0069e-13
1.09545e-13
4.03676e-13
-2.03729e-11
2.12503e-11
-2.72047e-11
3.17312e-13
6.40898e-11
-4.7111e-11
8.0407e-13
-5.8696e-13
2.93901e-13
-4.70654e-11
2.93462e-13
3.94364e-13
-1.19487e-12
-3.92882e-13
3.79636e-12
-3.81856e-13
-6.13792e-13
-6.17212e-13
8.70804e-11
-1.62203e-12
-8.48011e-11
-1.58446e-11
1.64398e-11
9.14624e-13
1.3383e-13
8.80321e-13
1.5924e-12
-1.23422e-10
1.6002e-13
-5.85036e-14
-8.81652e-13
8.1213e-11
8.78769e-11
3.4236e-13
-2.50207e-11
-3.52978e-12
1.29342e-12
-4.88603e-11
6.60146e-12
-1.97899e-13
5.86907e-13
-3.24321e-12
1.14723e-13
-3.13642e-13
-2.43263e-11
6.2898e-12
-2.14468e-10
5.72827e-13
-3.55361e-11
-7.27224e-13
-2.7184e-11
-1.7346e-11
-1.07255e-10
-1.49245e-11
6.00023e-11
9.49919e-13
2.79986e-13
5.69674e-11
-3.03296e-11
1.48979e-13
-2.76913e-11
-2.43664e-13
-1.02144e-11
-5.37143e-13
1.43767e-14
1.04291e-13
-1.30856e-11
-1.92417e-13
3.36853e-13
-5.95802e-13
2.62221e-13
2.27327e-11
-2.15698e-11
-3.55149e-13
-2.1157e-11
-1.23587e-13
6.87216e-12
5.50062e-14
5.79058e-12
-2.36757e-11
-2.98181e-13
-6.33793e-13
-5.77022e-11
0
4.60144e-11
2.92471e-13
-6.74626e-11
5.49557e-11
1.10457e-12
2.02423e-13
1.09162e-13
6.13609e-13
3.89859e-12
0
-3.53873e-12
-1.09923e-10
1.26085e-12
5.45147e-11
2.26458e-11
-3.38303e-11
4.39301e-11
-9.20364e-13
5.9783e-12
-2.46579e-13
9.08329e-13
0
-1.17751e-12
-4.52263e-11
2.20459e-13
5.57402e-13
2.93073e-12
1.17957e-12
5.28875e-13
-3.49481e-11
-2.61394e-11
-2.92457e-13
-8.22941e-11
6.28765e-13
-3.29865e-11
6.77561e-13
-5.53481e-12
-9.88159e-14
-4.5574e-11
-2.08844e-11
1.09038e-13
-1.82192e-11
8.00329e-13
4.59708e-11
-5.69732e-11
-1.19628e-10
-9.24246e-12
-1.13883e-12
-1.28088e-10
-2.50195e-13
2.97938e-13
2.5197e-11
2.0789e-11
5.78184e-13
3.06365e-11
-6.74568e-13
6.86011e-12
3.03545e-11
-2.59612e-13
-3.88352e-14
-2.18977e-11
1.74971e-13
-7.62216e-13
-3.88816e-13
-5.26176e-14
2.4526e-11
2.05512e-11
-2.14178e-11
-1.85998e-13
-1.29651e-13
-6.36939e-11
1.49084e-12
-3.50346e-13
5.7406e-11
0
-4.60143e-11
-4.26981e-11
1.24764e-10
-1.16484e-11
3.41328e-11
-3.44296e-13
1.51867e-12
-2.45416e-12
-1.5112e-13
-4.2586e-13
-3.5453e-12
1.17752e-12
-1.16242e-10
-5.33721e-11
-6.17043e-13
2.40654e-11
-1.02792e-10
1.30628e-12
5.45884e-11
3.58238e-13
7.26928e-13
6.14926e-11
-3.58676e-12
9.63962e-13
8.63945e-14
2.53025e-11
-8.79206e-13
-7.97686e-11
-5.02211e-13
1.36046e-11
9.31166e-14
6.05321e-11
1.17746e-12
9.41628e-14
2.99136e-13
2.46689e-11
-1.56317e-13
-1.13132e-10
9.98169e-11
6.38772e-11
-5.07014e-14
4.54037e-11
-3.75946e-12
6.80413e-13
5.98702e-11
5.92271e-11
-5.39008e-11
1.73831e-12
7.14404e-11
7.05627e-11
0
-1.13403e-13
-6.19794e-12
3.09389e-11
2.06237e-11
3.606e-14
-2.46928e-13
2.71189e-13
-2.31613e-11
0
1.49022e-13
6.9056e-12
-2.27154e-11
2.09598e-11
2.35297e-13
2.07311e-11
1.2865e-13
2.95149e-15
1.64676e-13
-2.47382e-11
2.47798e-13
-2.9821e-13
-6.20056e-13
2.92764e-13
-2.92877e-13
4.6605e-11
4.27003e-11
-5.79738e-11
-4.24134e-11
-8.40813e-13
2.23163e-11
-8.56952e-13
0
1.65992e-12
2.05388e-10
5.90946e-13
-1.17769e-12
-2.15533e-12
1.66323e-12
-2.29389e-11
2.02313e-13
5.94245e-11
-1.72087e-12
-4.69614e-13
-8.47417e-14
3.07309e-11
-5.91556e-11
-7.97366e-13
-1.42636e-12
2.77495e-11
-1.24315e-13
2.93096e-13
2.36375e-12
5.32326e-11
-1.08215e-12
-4.82855e-12
-6.05361e-11
1.15989e-10
1.28364e-12
8.17399e-12
-7.07871e-14
5.31094e-11
1.15693e-10
-5.4602e-11
2.3827e-11
9.86081e-13
0
5.01548e-11
-7.23323e-13
-5.96147e-11
-2.00847e-12
6.18411e-11
-1.81403e-12
6.02849e-13
4.62147e-11
1.49017e-13
4.52276e-13
-2.12038e-11
-7.70623e-13
-2.99972e-11
8.20389e-13
-6.56425e-12
-2.9641e-11
8.73311e-14
6.35138e-13
2.16246e-11
-6.45418e-13
-1.22535e-13
2.84032e-13
-2.01448e-13
-2.46888e-11
1.87796e-13
4.36791e-14
-1.46395e-13
-3.04422e-11
2.57201e-11
-3.87811e-11
5.18863e-11
-2.92751e-13
-4.5685e-11
-1.17229e-12
5.84882e-13
-6.36371e-13
-2.98835e-13
-6.10106e-11
2.84011e-14
2.52889e-13
-6.13689e-13
1.00296e-10
1.50026e-13
0
1.76573e-12
-1.29496e-12
-1.73439e-12
-3.67538e-14
-4.27497e-11
0
-1.93053e-10
-3.11199e-13
-6.49107e-13
-1.72244e-12
4.15798e-11
1.14976e-10
-7.85587e-12
-3.04571e-13
1.15325e-13
0
1.04552e-10
-5.33134e-11
-2.01301e-11
-6.24888e-14
0
1.76569e-12
-6.09905e-13
6.97225e-13
4.62341e-13
-5.29059e-11
-1.45341e-13
4.99511e-13
-2.85525e-11
-2.31529e-11
0
-2.65341e-11
-9.57386e-14
4.34069e-11
-5.81657e-11
-5.57917e-11
-8.16142e-13
-3.31464e-12
-4.09493e-11
1.57872e-11
3.53791e-13
6.03764e-12
2.43516e-11
-1.99484e-11
2.03973e-14
-3.12588e-13
2.26432e-13
4.81136e-11
1.10182e-13
0
-7.25824e-12
2.22216e-11
9.48321e-13
1.37105e-13
3.4306e-15
-2.94132e-11
-4.42398e-13
1.76283e-13
2.43484e-11
4.15758e-14
5.1652e-11
-5.17431e-11
5.16309e-11
4.60989e-11
-5.87659e-13
-5.86412e-13
9.1745e-13
-2.98995e-13
-2.13215e-13
-2.2286e-11
8.38625e-14
3.06436e-12
1.35025e-10
-5.87545e-13
1.13566e-10
1.13798e-10
8.47551e-11
-2.36078e-11
2.13741e-11
-2.16605e-11
-8.80193e-13
-6.40345e-11
-6.81165e-11
3.87008e-13
-3.14325e-11
-9.24827e-11
9.22359e-11
7.43596e-12
-2.75617e-11
-3.77978e-11
5.87665e-13
-1.76526e-12
-6.50552e-11
2.44097e-11
3.19618e-11
8.20998e-12
2.69831e-11
-2.8658e-13
2.55017e-11
-9.57984e-13
-3.59904e-13
1.36762e-13
2.62097e-13
-3.32081e-12
-2.90849e-11
2.98972e-13
4.0298e-11
6.83793e-11
-4.36769e-11
6.06191e-11
5.67192e-11
6.49193e-11
4.97036e-11
-7.14636e-11
1.68698e-13
3.65711e-13
-1.5906e-12
-6.34125e-13
4.40187e-14
-1.3843e-13
2.66539e-13
-7.2073e-13
9.77872e-13
-7.46461e-13
-2.11902e-11
-3.92793e-11
-3.00093e-11
-8.24972e-14
-2.09774e-13
1.27542e-13
6.39701e-13
2.59321e-11
2.54723e-13
3.10358e-11
-1.5309e-14
-1.374e-11
-5.64773e-11
-5.07729e-11
4.25728e-11
8.93643e-13
1.48659e-12
-5.94261e-13
1.49546e-12
5.93282e-12
-9.22876e-15
-3.36947e-14
1.22409e-12
-1.02812e-10
-1.33607e-11
9.12099e-11
9.28464e-11
-2.40082e-10
2.15615e-11
2.16765e-11
1.89976e-11
5.93939e-13
-2.57483e-11
6.82878e-11
-5.77474e-13
1.68948e-12
4.70417e-11
9.61299e-11
6.01217e-13
2.72989e-11
4.5239e-13
5.9588e-13
1.20309e-10
1.2636e-11
2.66935e-13
5.19007e-13
-7.43422e-12
5.51699e-13
-6.35615e-11
-1.59224e-14
1.91639e-12
-1.18867e-12
-1.3205e-10
4.24473e-13
1.84765e-12
2.25858e-11
5.98091e-13
-8.66408e-11
-6.95072e-11
-6.08616e-11
5.9875e-11
1.28925e-11
-2.11113e-11
-4.70281e-11
-1.66678e-13
-1.64106e-11
-1.45435e-13
-1.19876e-14
-2.48147e-11
2.11245e-11
-4.20287e-13
2.19494e-11
-5.60818e-13
-2.51983e-11
0
2.97773e-13
9.02173e-14
-2.61699e-11
3.16894e-14
-4.44862e-12
-2.805e-11
2.92251e-11
2.88234e-11
2.13828e-11
2.48415e-11
7.90031e-13
-4.61341e-11
1.30431e-10
-1.0158e-12
-4.24173e-11
4.00625e-11
-5.92934e-13
-7.41021e-12
-5.02655e-11
-2.63892e-11
4.35373e-14
5.94406e-13
1.83825e-11
-1.17873e-12
-3.54552e-12
5.91079e-13
8.8091e-14
-1.25243e-10
2.93656e-12
-2.13623e-11
2.19959e-11
-4.40505e-13
-1.96903e-13
1.07541e-12
4.59693e-13
-1.59211e-11
-2.56707e-11
5.71361e-13
-4.18213e-13
-2.57902e-11
3.02448e-13
1.62126e-12
-1.18223e-12
-1.44924e-11
4.89947e-11
-1.55017e-11
2.09042e-12
0
-7.41366e-12
1.72684e-13
1.08106e-11
-1.45441e-11
-1.71453e-11
-1.02448e-12
-5.316e-13
1.42559e-11
-3.47295e-12
5.81331e-13
5.36136e-11
-2.45027e-11
6.65145e-13
-5.93058e-13
-7.96816e-11
5.97607e-11
-5.77389e-11
3.40201e-11
-2.98961e-11
5.76854e-13
6.24992e-11
-2.37647e-13
2.67079e-11
5.92908e-13
1.70541e-11
3.42397e-12
-1.38405e-10
-1.16408e-12
2.32662e-12
1.01641e-10
-2.01247e-13
1.01065e-12
2.87312e-11
1.48713e-12
7.75511e-11
3.51892e-13
5.98723e-11
-5.9324e-11
-1.36274e-11
-4.55404e-11
0
2.63403e-11
-2.7258e-11
2.94487e-14
1.90686e-11
-1.27432e-13
2.47994e-11
6.03086e-14
2.40882e-13
-1.38182e-12
-2.95436e-11
2.0843e-12
2.27161e-11
3.96165e-11
2.99303e-11
-3.70046e-12
-1.05188e-13
1.47987e-13
-5.92067e-13
-2.60185e-11
1.05764e-12
1.20653e-12
0
8.92187e-12
-3.42233e-11
9.97653e-14
-5.90751e-13
2.16819e-12
-6.71924e-12
6.79785e-12
-1.09581e-11
2.10664e-11
6.37132e-12
3.08344e-13
-2.94682e-13
-4.91597e-11
0
-8.56451e-13
-2.93793e-13
2.93963e-13
1.5411e-13
-2.17776e-11
-2.27945e-11
1.30593e-11
2.93731e-13
0
-5.46105e-11
5.68243e-11
4.38708e-11
-1.46492e-12
5.31015e-13
4.43986e-13
-1.4798e-13
-3.05529e-11
2.92033e-13
1.41963e-11
-7.06185e-12
1.13889e-13
-4.16629e-12
1.91183e-13
-1.92355e-11
-2.69294e-11
-2.95962e-13
2.84577e-12
4.91594e-11
9.58911e-12
7.55251e-12
-1.48686e-11
-1.92313e-12
1.37216e-12
1.86643e-11
1.47966e-13
-5.92074e-13
5.34379e-12
6.55704e-11
-1.76432e-11
5.59352e-11
0
-1.242e-12
-7.98388e-13
3.8617e-13
-4.44021e-13
2.01306e-11
2.95586e-13
4.42909e-11
-5.86546e-13
2.52055e-13
-2.70053e-13
9.73019e-11
-6.15386e-11
-2.94933e-13
-1.5535e-12
-2.96747e-13
-1.26325e-11
-8.8635e-13
3.07017e-11
2.94883e-13
-2.68305e-11
4.83086e-11
-9.41475e-12
-1.04928e-11
4.45155e-13
3.15774e-13
-1.29392e-13
-3.48886e-13
0
-2.11273e-11
5.919e-13
-2.11638e-11
1.48151e-13
-1.48361e-13
2.96927e-13
-1.48202e-13
2.96244e-13
2.16096e-11
1.47935e-13
4.88148e-12
2.78083e-11
0
-5.1068e-11
-2.25146e-11
-2.54898e-11
-1.18496e-12
-2.72282e-11
2.98589e-11
2.11261e-11
-1.78375e-11
-2.63017e-11
3.66381e-11
9.53087e-12
3.7142e-11
2.62159e-11
-2.13129e-11
0
-9.62663e-12
-1.05109e-11
1.47659e-13
1.11856e-11
-4.42581e-13
-1.19871e-11
-2.06923e-11
0
-2.1153e-11
-1.47732e-13
-2.02816e-12
-1.89785e-11
-1.97996e-11
-1.79862e-11
-4.65372e-12
-3.47814e-11
-1.47739e-13
2.5738e-11
5.91588e-13
-2.14222e-11
-1.55291e-11
0
2.84795e-11
3.81181e-11
8.43807e-12
8.56508e-12
-4.43309e-13
1.1832e-12
2.73609e-11
0
-1.69655e-11
-2.77988e-11
-2.16578e-11
7.41631e-13
-6.2174e-12
-5.31612e-12
-2.46776e-11
2.95807e-13
2.9585e-13
-5.7015e-11
-2.48772e-11
3.4244e-11
1.08474e-11
-2.86115e-11
-1.48479e-11
1.65228e-11
-2.26025e-11
0
-2.60504e-11
7.27698e-12
7.26447e-12
-9.25336e-12
-6.86664e-12
-2.21514e-12
-1.01064e-11
1.0143e-11
-4.02656e-12
2.2647e-11
2.96229e-13
-2.79674e-11
-1.83215e-11
-2.09749e-11
2.9729e-11
2.74834e-11
0
2.95608e-11
3.16671e-11
-4.44366e-13
2.71183e-11
0
2.66411e-12
-1.47926e-13
-2.47018e-11
-2.39608e-11
-8.87535e-13
-2.60113e-11
6.26901e-11
-2.07477e-12
2.07272e-11
-5.9202e-13
1.47947e-13
4.14138e-12
-7.39478e-13
-1.47896e-13
1.4791e-13
-5.91807e-13
-5.92028e-13
-1.33246e-12
-2.82685e-11
-2.97351e-11
7.39324e-13
2.95663e-13
0
-2.54282e-11
1.47835e-13
1.47871e-13
2.21907e-11
0
-2.85525e-11
-2.38055e-11
-2.95575e-13
-1.98026e-11
-2.02519e-11
-4.89306e-11
1.47788e-13
4.93629e-11
1.47862e-13
0
2.14446e-11
-2.23204e-11
0
3.69551e-12
8.87544e-13
-3.22484e-11
0
4.43368e-13
-1.47829e-13
1.03529e-12
-2.72092e-11
3.08925e-11
-8.8674e-13
-2.95797e-13
-2.84263e-11
2.96117e-13
-1.4793e-13
-2.35048e-11
4.95241e-11
4.43658e-12
-1.47875e-13
2.64577e-11
2.67491e-11
2.95791e-13
1.48054e-13
0
2.01185e-11
-4.43485e-13
0
2.07043e-11
1.47893e-13
2.9562e-13
5.65877e-11
-1.47804e-13
0
-2.95862e-13
-2.12892e-11
-1.47787e-13
2.73489e-11
0
-2.20429e-11
-1.47854e-13
1.47768e-13
0
-2.8973e-11
-1.33045e-12
3.20704e-11
-7.38965e-13
-5.91476e-13
-4.43846e-13
0
1.47931e-13
-5.91425e-13
-2.40951e-11
0
1.47834e-13
-3.40009e-11
-4.43589e-13
-2.20428e-11
-4.44018e-13
0
4.4399e-13
4.43817e-13
1.47899e-13
-1.47888e-13
1.29569e-13
3.23532e-12
-3.71919e-14
1.11035e-13
2.96102e-13
1.30214e-11
5.91782e-13
-1.80457e-11
1.47896e-13
1.331e-12
-5.91561e-13
0
2.26318e-11
8.87693e-13
1.47972e-13
0
1.47914e-13
7.39417e-13
-2.09975e-11
2.33637e-11
-6.95003e-12
-7.54157e-12
-4.43667e-13
-4.43754e-13
0
2.18906e-11
-1.03515e-12
2.95708e-13
-2.12913e-11
-4.43625e-13
-2.72094e-11
-2.23273e-11
1.89263e-11
2.04082e-11
2.95828e-13
2.14432e-11
7.39291e-13
-2.95695e-13
2.75049e-11
1.87857e-11
4.14183e-12
4.58454e-12
2.75025e-11
-7.3935e-13
-7.39462e-13
-7.39363e-13
2.15865e-11
2.27698e-11
2.95813e-13
-5.34166e-11
-3.81772e-11
4.43772e-13
7.3939e-13
-1.4787e-13
-1.47885e-12
1.47872e-13
0
-2.95707e-13
4.43713e-13
0
-1.03582e-12
-2.95848e-13
-2.23296e-11
0
2.83941e-11
-1.47882e-13
2.85358e-11
2.20282e-11
1.47869e-13
3.07665e-11
2.86969e-11
5.73807e-11
-5.9145e-13
2.27722e-11
2.95791e-13
1.47907e-13
0
-2.95691e-13
2.70562e-11
-4.43613e-13
-3.03145e-11
-1.47862e-13
0
0
-2.26314e-11
-1.47939e-13
2.81027e-11
2.60263e-11
5.91452e-13
-3.03127e-11
-1.62656e-12
-5.9148e-13
1.47885e-13
-7.39588e-13
-3.69869e-12
1.47964e-13
0
1.4791e-12
-1.47889e-13
0
2.38278e-11
1.34941e-12
2.72162e-11
-3.41755e-11
-2.95943e-13
-9.61492e-12
1.03536e-12
1.47892e-13
-2.95763e-13
2.21818e-12
2.9576e-13
-2.9577e-13
5.91586e-13
0
1.47926e-13
2.86937e-11
3.00221e-11
-8.87275e-13
-7.39376e-13
2.35126e-11
1.86329e-11
-8.87279e-13
1.47885e-13
-2.21847e-11
2.95821e-13
2.14434e-11
2.29206e-11
-4.43609e-13
-1.92241e-12
2.02611e-11
-7.09888e-12
-2.23306e-11
-2.80969e-11
-4.4365e-13
2.95786e-13
2.07019e-12
4.43596e-13
-2.95742e-13
-1.47895e-13
2.98801e-11
3.19518e-11
0
-2.95768e-13
-8.87265e-13
-7.39405e-13
2.72069e-11
-4.43588e-13
7.39387e-13
2.95827e-13
2.07129e-12
-2.95908e-13
4.43779e-13
2.35152e-11
-2.08509e-11
-4.28842e-12
0
-2.69108e-11
2.95752e-13
4.43736e-13