/*--------------------------------*- C++ -*----------------------------------*\
  =========                 |
  \\      /  F ield         | OpenFOAM: The Open Source CFD Toolbox
   \\    /   O peration     | Website:  https://openfoam.org
    \\  /    A nd           | Version:  10
     \\/     M anipulation  |
\*---------------------------------------------------------------------------*/
FoamFile
{
    format      ascii;
    class       volScalarField;
    location    "0.9";
    object      gradTx;
}
// * * * * * * * * * * * * * * * * * * * * * * * * * * * * * * * * * * * * * //

dimensions      [0 -1 0 1 0 0 0];

internalField   nonuniform List<scalar> 
47104
(
1.3959e-13
-6.19299e-15
5.86824e-13
5.51545e-13
-1.94693e-13
1.55231e-13
2.56927e-13
5.25537e-14
-2.57264e-15
-1.39584e-13
9.32208e-15
-9.24761e-14
1.92462e-13
-4.99998e-13
1.36972e-14
2.29818e-11
4.62444e-13
-2.24399e-11
-1.71979e-11
-1.68529e-11
-1.39536e-13
9.21406e-14
5.2811e-12
1.93937e-14
-5.90722e-12
1.22527e-13
6.64868e-13
2.23745e-13
6.41274e-13
2.88441e-13
-1.57712e-11
-1.58349e-11
-6.4076e-13
1.61115e-13
-9.53209e-14
8.26231e-14
-5.54172e-13
-1.15217e-13
7.17286e-13
1.57889e-13
1.4855e-13
5.42096e-14
-6.70387e-14
-1.50007e-13
-1.59357e-14
-2.52224e-13
3.5623e-14
-1.49982e-13
1.7877e-13
0
0
8.54397e-13
1.64541e-13
-8.74391e-14
1.36759e-13
3.43714e-12
2.70511e-13
1.29947e-11
-3.68774e-13
-1.72312e-11
1.54569e-11
3.28892e-13
-1.54741e-11
4.73289e-13
-5.87052e-13
6.67922e-15
4.82651e-13
2.9321e-12
-2.10333e-13
-2.8161e-12
4.56183e-13
-2.05149e-13
-4.82006e-13
-2.27542e-11
-9.08611e-14
2.29786e-11
-1.40107e-13
-4.14708e-14
7.04264e-13
7.35228e-13
-1.39766e-13
1.75212e-13
5.56994e-13
-1.59196e-13
-5.49235e-13
1.03943e-13
1.75157e-11
-3.09115e-14
8.45174e-13
1.81768e-11
1.39609e-13
4.66196e-13
-1.21779e-13
-3.50837e-13
-1.72802e-11
-7.25274e-16
1.66279e-11
-1.62796e-11
6.0678e-13
1.61116e-11
-1.49214e-13
-2.17131e-13
-2.7678e-12
7.9131e-14
2.82477e-12
-2.09818e-14
1.08422e-13
-2.01169e-13
1.04132e-13
4.47613e-13
-1.49336e-13
-2.8939e-11
-1.45121e-11
2.9097e-11
1.46317e-11
2.35595e-11
1.54115e-11
-4.23099e-11
-1.57269e-11
1.88153e-11
1.23924e-11
1.87043e-11
-1.28093e-11
1.16772e-12
-3.50106e-13
-3.72734e-11
7.15497e-11
-3.40988e-11
0
1.493e-13
1.49207e-13
-7.55171e-12
1.9461e-13
4.57472e-15
-4.51264e-11
4.52837e-11
-3.18502e-14
-3.0088e-11
-1.80565e-11
-1.04441e-12
-1.49167e-13
6.61844e-12
2.1768e-12
-2.34314e-12
4.22236e-13
-3.02792e-11
3.0142e-11
-6.41436e-13
-1.89948e-11
-1.8794e-11
1.58127e-11
1.64159e-11
5.59002e-13
6.62395e-13
1.04878e-11
-1.04168e-11
4.20572e-11
-4.16589e-11
-2.337e-11
4.47491e-12
3.89497e-11
2.84154e-12
-2.92367e-11
-3.41067e-11
3.48634e-11
3.93749e-14
2.39436e-13
4.25344e-11
-3.66383e-12
3.52146e-11
0
-2.61892e-13
4.72954e-11
-4.66548e-11
5.2001e-13
9.52966e-14
-1.40128e-12
2.58775e-13
6.99569e-12
0
1.61304e-11
9.88928e-12
-1.63399e-11
-9.63573e-12
-6.38133e-13
-1.82364e-13
-6.50668e-13
4.69787e-13
-1.52357e-11
-1.59798e-11
-1.4921e-13
3.00441e-13
-4.53084e-13
4.39411e-13
-2.47038e-11
-1.65537e-11
2.50065e-11
1.62551e-11
-2.29462e-13
-2.98422e-13
1.49189e-13
2.08022e-11
1.56727e-11
-2.09527e-11
-1.53102e-11
-6.53219e-14
-1.48531e-13
1.49571e-13
-1.57795e-13
0
1.13432e-11
-2.46675e-11
5.71505e-12
-4.01909e-11
4.01769e-11
-5.92946e-13
-7.14514e-13
5.19459e-13
1.77182e-13
-1.29839e-11
1.4314e-11
6.89712e-12
1.13636e-12
-1.16596e-12
3.8052e-14
-6.36662e-13
1.37062e-12
2.52916e-13
7.69632e-13
7.15663e-12
-1.14714e-11
4.15322e-11
4.09481e-10
-2.56074e-07
-1.25563e-08
2.92557e-09
3.57845e-08
3.49519e-08
-5.15359e-13
-6.25688e-12
-2.98048e-13
3.61196e-13
7.35895e-10
-3.01785e-07
9.26923e-08
-2.08865e-08
-2.63943e-07
5.77461e-08
-4.79881e-11
0
2.98074e-13
1.13052e-13
7.33299e-10
-3.08624e-07
9.82517e-08
-2.2255e-08
-2.7606e-07
5.91227e-08
5.52853e-13
-6.10991e-12
-7.45083e-12
1.46719e-11
7.77594e-10
-2.62074e-07
7.4948e-08
-1.67076e-08
-2.20397e-07
5.33931e-08
-9.73061e-14
0
-6.11546e-12
1.04655e-11
-5.65955e-11
-1.45762e-08
-2.98322e-09
6.96332e-10
8.25402e-09
-1.70816e-09
4.71884e-11
-4.47381e-13
1.49293e-13
1.90947e-11
-1.82017e-11
-4.55007e-11
4.4557e-11
1.48443e-11
-1.43782e-11
3.52294e-15
-6.53154e-13
1.28375e-11
-1.87972e-11
2.20502e-11
1.85916e-11
-2.23226e-11
4.53244e-13
-6.66193e-13
-4.1339e-14
2.99775e-13
1.34932e-13
0
-1.682e-11
-1.56558e-11
-7.29679e-14
-1.43579e-12
-2.32501e-11
-3.07457e-13
2.66454e-11
-8.07457e-15
-3.36013e-12
-1.48823e-13
1.48615e-13
4.46779e-14
-7.99336e-12
-5.07148e-11
-1.25822e-11
2.08608e-11
1.21708e-11
5.88669e-11
-8.49812e-13
-1.36706e-11
8.85801e-13
7.09627e-11
-3.38149e-09
-4.08713e-07
-2.32316e-09
1.06868e-09
1.58589e-08
1.0337e-06
7.00228e-08
7.08606e-12
-1.83362e-11
1.12593e-08
0.000102236
-1.05156
-0.00770893
0.000490763
0.0207954
0.897702
5.82411e-06
-1.0268e-11
-1.421e-11
1.0342e-08
0.000105646
-1.64302
-0.0260299
0.00154345
0.0738207
1.14564
5.29133e-06
1.1719e-11
4.2488e-12
1.0247e-08
0.000106246
-1.65181
-0.0271318
0.00162019
0.0757947
1.14988
5.26793e-06
2.25598e-11
-6.8965e-12
1.07036e-08
0.000105043
-1.63014
-0.0247344
0.0014568
0.0710482
1.13667
5.37959e-06
1.76041e-11
-2.08246e-11
8.89286e-09
0.000103473
0.21571
-0.0195471
-0.0212919
-0.0225775
-0.233598
3.72163e-06
6.4969e-12
1.48658e-13
4.93963e-13
8.89529e-09
3.40161e-08
1.64213e-09
-4.01103e-10
-7.18452e-09
-6.27165e-08
-9.9165e-11
5.49964e-12
-5.95366e-13
1.84815e-11
3.88636e-13
-1.80914e-12
3.48316e-14
-1.65762e-11
-1.48116e-13
2.00138e-11
1.46264e-13
-1.97971e-11
-7.43326e-13
-2.85815e-13
2.94469e-13
6.08547e-13
4.1777e-13
-1.32697e-13
-1.75263e-11
3.71698e-13
1.72087e-11
0
3.27944e-11
2.58758e-11
3.8361e-12
4.61861e-09
1.72507e-09
-2.91625e-10
-4.27612e-09
3.53375e-10
3.08532e-11
-3.85748e-12
3.27646e-11
-6.37741e-10
-1.71818e-06
0.0286405
0.000769973
0.000179725
-0.00123724
0.00136981
5.90179e-07
-3.40854e-11
-7.96844e-11
-3.41093e-07
-1.0655
0.00121364
7.60532e-11
-1.04526e-10
-6.22837e-07
-1.29203
0.00149114
1.09145e-10
-1.08012e-10
-6.04505e-07
-1.29441
0.0014946
1.42831e-10
-9.64251e-11
-6.54462e-07
-1.28811
0.00147754
8.15738e-11
7.49687e-12
4.22455e-08
0.00888168
-7.85155e-05
9.25738e-12
-6.08539e-12
3.06722e-14
5.47834e-08
2.15608e-05
1.52127e-06
-3.15409e-07
-7.49979e-06
3.04707e-06
7.01296e-10
-5.78811e-12
-1.4865e-13
5.91523e-13
1.02717e-13
-1.61553e-11
2.58056e-13
3.96763e-11
-7.18172e-13
-3.75623e-12
1.18474e-14
-2.08136e-11
2.23059e-12
-1.18498e-14
-2.12702e-12
3.58059e-13
3.33689e-13
-3.62496e-13
-4.84798e-13
-3.90533e-13
2.12443e-13
4.46039e-13
1.52997e-11
7.44116e-11
-2.79091e-11
4.74028e-09
2.35045e-09
-3.55482e-10
-5.7824e-09
5.32103e-10
5.03164e-12
-6.83154e-12
-4.7052e-12
-7.75074e-10
-1.90743e-06
0.0358318
0.000975897
0.000141143
-0.00181934
0.0014775
6.34422e-07
2.67584e-11
-7.36799e-11
-2.84785e-07
-1.0955
0.00124555
5.27888e-11
-1.06517e-10
-6.57474e-07
-1.34885
0.00161143
1.03185e-10
-9.4407e-11
-6.33679e-07
-1.3522
0.00161688
9.42396e-11
-8.51877e-11
-6.47376e-07
-1.33936
0.00158804
1.00362e-10
-1.67709e-11
1.26509e-08
-0.0466919
-8.3866e-05
-4.26427e-12
-1.27762e-11
-1.29574e-11
5.78834e-08
2.53711e-05
2.09383e-06
-4.58571e-07
-1.19662e-05
1.55397e-06
6.76298e-10
1.27761e-11
1.48683e-13
8.38647e-14
1.85797e-11
6.43216e-13
-1.85492e-11
-2.99444e-13
-4.21727e-13
1.81464e-11
2.0161e-14
-1.82913e-11
-1.63671e-12
-6.84801e-13
6.30661e-13
-1.75213e-13
3.35425e-13
-3.441e-14
-4.17996e-13
-1.2581e-13
1.83142e-13
-1.48767e-13
4.75761e-12
-6.20023e-11
6.69572e-11
4.46635e-09
2.42344e-09
-3.72362e-10
-5.82085e-09
5.23966e-10
-2.82593e-13
2.31876e-11
3.54729e-11
-7.69895e-10
-1.91534e-06
0.0359867
0.000959494
9.76403e-05
-0.00188826
0.00148539
6.39455e-07
-1.05947e-11
-7.38896e-11
-2.67748e-07
-1.09636
0.00124836
6.77675e-11
-9.84881e-11
-6.31905e-07
-1.35121
0.00161745
7.76765e-11
-6.2388e-11
-6.03295e-07
-1.35495
0.00162316
9.61589e-11
-6.1421e-11
-6.84787e-07
-1.34621
0.0015934
6.41426e-11
2.7976e-12
2.68407e-08
0.0103282
-8.42613e-05
3.82641e-11
-8.47532e-12
3.52793e-11
5.79967e-08
2.56461e-05
2.17613e-06
-3.9015e-07
-8.95369e-06
3.53186e-06
8.09932e-10
1.15978e-11
-2.12734e-11
-2.27464e-13
4.12041e-12
1.80536e-11
3.51712e-11
-1.79782e-11
-2.17887e-11
2.37432e-13
3.38327e-12
-1.48797e-13
-3.28978e-11
3.31236e-14
3.27338e-11
7.2168e-13
1.92534e-11
-1.67946e-11
-1.89238e-11
1.63426e-11
5.73569e-13
5.9536e-13
2.975e-13
-2.24436e-12
1.48895e-11
4.42541e-09
2.42195e-09
-3.9071e-10
-5.7817e-09
5.04427e-10
6.00048e-14
7.43587e-13
-5.30293e-12
-6.96675e-10
-1.9038e-06
0.036014
0.000957425
9.17538e-05
-0.00189652
0.00148503
6.34741e-07
5.59479e-12
-7.48335e-11
-3.90348e-07
0.113198
0.00124888
8.85745e-11
-9.65422e-11
-6.33554e-07
-1.34964
0.00161803
9.81013e-11
-9.35017e-11
-6.01887e-07
-1.35515
0.00162375
9.23238e-11
-4.46044e-11
-6.81853e-07
-1.3467
0.00159393
7.18794e-11
9.72373e-12
2.68674e-08
0.0103433
-8.43102e-05
1.91427e-12
-1.3687e-11
-3.86988e-11
5.79254e-08
2.56591e-05
2.17693e-06
-4.23902e-07
-9.66995e-06
3.43493e-06
7.67929e-10
2.97536e-13
0
-1.70745e-11
-5.75079e-15
3.6471e-11
3.15339e-13
-1.90467e-11
-8.62517e-13
-3.16402e-15
-1.35834e-14
0
2.38246e-12
-3.44582e-13
-3.09364e-12
-4.59217e-12
-4.26553e-14
4.68671e-12
-7.17583e-13
-1.80012e-13
8.5789e-13
1.48897e-13
-1.23496e-11
7.76848e-14
3.21677e-11
4.58478e-09
2.37158e-09
-3.59613e-10
-5.85139e-09
5.23553e-10
8.56504e-11
-5.35595e-12
-1.37063e-11
1.16601e-10
-1.89691e-06
0.0359318
0.000954579
0.000106155
-0.00186458
0.0014814
6.28856e-07
-8.98673e-12
-7.2584e-11
-4.13746e-07
0.221062
0.00124815
6.73089e-11
-1.05515e-10
-6.54881e-07
-1.34874
0.00161426
1.00712e-10
-1.18685e-10
-6.239e-07
-1.35405
0.00161975
1.20104e-10
-8.07304e-11
-6.98833e-07
-1.34576
0.00159075
7.55991e-11
-8.8451e-13
2.68587e-08
0.0103464
-8.41961e-05
-1.6355e-11
6.10194e-12
-2.82652e-13
5.7758e-08
2.53916e-05
2.09601e-06
-4.55837e-07
-1.1958e-05
1.54742e-06
7.51677e-10
-1.48823e-13
-1.48892e-13
-3.73355e-14
5.9155e-13
-4.7363e-12
-3.91849e-13
4.58976e-12
-8.75351e-13
2.01761e-13
-4.73197e-13
-2.9785e-13
-1.48928e-13
-5.66922e-14
-2.00752e-11
-1.94366e-13
2.00637e-11
8.93449e-14
-4.58332e-14
2.22552e-11
-1.31699e-13
-2.23407e-11
2.41076e-11
2.98743e-11
8.33868e-12
1.95628e-09
6.51593e-10
-1.03375e-10
-1.71655e-09
3.50779e-10
3.32453e-11
8.9295e-13
2.80184e-11
-6.92179e-10
-1.87361e-06
0.0303617
0.000745223
0.000100289
-0.00139781
0.00145116
6.06117e-07
2.71304e-11
2.28812e-11
-1.5655e-07
-1.07717
0.00107771
2.56433e-11
-2.32279e-12
-1.9381e-07
-1.31135
0.001223
8.27297e-12
2.49719e-11
-1.69016e-07
-1.31429
0.00122514
7.83773e-12
-1.26832e-11
-2.54763e-07
-1.30791
0.00122008
1.04911e-11
-2.06547e-11
2.26178e-08
0.00930339
-7.41416e-05
2.80192e-12
-7.89002e-12
-7.1807e-13
5.14075e-08
1.80155e-05
1.26618e-06
-2.27895e-07
-5.27902e-06
2.71867e-06
7.51753e-10
4.466e-13
-1.4893e-13
2.42352e-12
2.22726e-11
-1.92378e-12
-2.22628e-11
-2.55084e-11
-2.24455e-11
2.57282e-11
2.28182e-11
1.48962e-13
-1.48929e-13
-1.83452e-13
1.67535e-11
-3.76928e-13
-1.41615e-12
6.01651e-13
-1.61073e-11
4.58324e-13
9.3767e-13
-4.46866e-13
1.48808e-13
-6.10581e-13
-3.5125e-11
1.75753e-11
-3.28706e-12
5.88929e-13
6.8674e-12
-3.50536e-11
7.41684e-11
-1.0121e-11
-6.93087e-12
-2.92711e-11
-2.45182e-07
3.27795e-06
9.27939e-08
-1.7243e-08
-1.82016e-07
-1.47113e-05
4.14584e-08
-5.30831e-12
1.45742e-13
1.16222e-09
-0.000446605
-1.44554e-06
2.9141e-13
-5.80797e-12
1.21682e-09
-0.000460592
-1.51476e-06
1.98848e-11
1.45216e-13
1.17255e-09
-0.000448721
-1.5196e-06
1.4515e-13
2.59527e-11
1.20614e-09
-0.000460135
-1.49852e-06
-3.40985e-11
0
4.28381e-10
-0.000412509
-6.78681e-07
7.07903e-12
-6.69993e-12
4.06074e-12
1.07454e-09
-1.3703e-08
-1.04506e-09
2.05467e-10
3.69359e-09
1.75442e-08
-4.10651e-12
-1.48875e-13
4.46835e-13
-5.68947e-13
1.99286e-11
-1.44599e-11
-2.03209e-11
1.54801e-11
-1.01917e-13
-5.35663e-14
6.96632e-14
-1.48971e-13
-8.48817e-12
-2.3404e-11
-1.53524e-11
3.30687e-13
3.77829e-13
-1.06093e-12
-7.11172e-13
1.20035e-13
3.36353e-14
0
-3.88337e-11
-2.59662e-11
3.27605e-11
-3.24548e-11
3.1656e-11
-3.27176e-11
-3.33478e-11
3.38308e-11
5.29289e-13
-5.0599e-12
-1.47353e-13
-3.77478e-11
-4.02822e-11
-7.98562e-11
1.72134e-12
-9.02893e-11
-1.18096e-12
1.96354e-12
5.64845e-11
-3.24158e-11
7.70734e-12
5.04873e-11
-6.74677e-11
-9.43848e-13
0
5.79035e-13
3.00052e-13
-2.94508e-11
-3.6573e-13
0
-7.52826e-12
1.52729e-11
1.03249e-13
6.6386e-11
-1.1723e-11
1.13472e-11
4.18549e-12
-5.70918e-12
-3.64231e-13
-2.0941e-11
2.40335e-11
2.3148e-11
1.43545e-13
1.09671e-12
-3.55201e-11
1.48876e-13
-4.37038e-13
7.19423e-13
-2.98449e-11
2.95904e-11
-3.51168e-11
3.49279e-11
-3.89247e-11
4.09269e-11
1.48853e-11
-1.90641e-11
-2.51855e-11
4.05551e-12
2.52877e-11
1.52716e-11
2.60093e-14
-2.27152e-11
-1.58507e-11
2.28289e-11
1.63854e-11
-2.01018e-11
1.61466e-11
2.0138e-11
-3.57407e-11
-8.57616e-14
9.70829e-12
3.80766e-13
9.59473e-12
-1.51415e-13
2.97875e-13
5.80239e-12
-4.78875e-11
3.63208e-11
1.99273e-12
-1.95626e-12
-4.48269e-11
4.49264e-11
-1.47092e-12
4.08511e-13
-3.31835e-11
1.4729e-13
3.44441e-13
-2.60682e-13
-5.79757e-13
-5.8972e-13
7.48187e-13
1.26364e-12
6.49243e-11
-7.98636e-12
-3.77054e-11
-1.45264e-13
-5.0743e-11
6.93753e-11
3.92399e-12
-2.09162e-11
-3.35339e-11
-3.40876e-11
-4.14655e-14
-5.33911e-11
1.0117e-12
1.44554e-13
-3.79791e-11
5.14401e-11
-5.20962e-12
-2.89077e-12
-2.48466e-11
-4.41787e-11
3.14059e-11
-1.74217e-11
-2.99322e-11
1.62091e-12
-3.05316e-11
6.63924e-11
-6.71524e-11
1.47352e-13
1.59267e-11
9.72503e-12
1.37238e-12
1.16661e-11
-1.23746e-13
-4.16594e-11
-3.47769e-12
3.51575e-12
4.10736e-11
-2.58979e-11
2.97845e-13
3.02649e-13
7.34744e-13
3.78181e-13
-1.30039e-12
-6.96192e-13
1.95223e-11
-2.56684e-13
-1.94997e-11
8.93643e-13
-5.9558e-13
1.70599e-13
2.84602e-13
-1.81624e-13
-1.6576e-13
1.57115e-11
-1.66184e-11
-1.57959e-11
1.69383e-11
0
1.4877e-13
-2.38324e-14
5.95492e-13
3.43779e-11
-7.73847e-11
4.23669e-11
1.81022e-13
2.94211e-13
2.90412e-13
-7.43998e-13
-7.95284e-12
-6.91274e-13
-2.69097e-11
9.35431e-11
7.66864e-11
-5.87006e-13
-8.42596e-11
1.92185e-12
6.21702e-13
1.47274e-13
2.6578e-11
2.03571e-11
-2.85119e-11
-2.68951e-12
-4.06633e-11
-6.21358e-12
-9.62375e-13
4.59434e-13
1.64867e-11
-2.32637e-11
-7.22565e-13
6.54879e-13
3.25141e-11
5.8731e-13
-1.30052e-12
4.06779e-12
-1.50189e-11
-2.87564e-11
4.66804e-11
-5.81031e-12
3.22657e-11
5.47844e-11
-1.08874e-10
1.13298e-13
1.11962e-11
0
-7.84729e-15
-6.04071e-13
3.08912e-11
2.05784e-11
-5.13619e-11
3.06213e-11
-3.07486e-11
-5.89782e-13
-3.60169e-11
-1.4891e-13
2.48721e-11
2.37941e-11
-4.86871e-11
-2.31884e-11
2.33823e-11
-1.62266e-13
3.127e-13
-1.04365e-12
-1.04252e-12
5.95574e-13
7.39529e-13
-2.14125e-13
2.61702e-13
-1.27068e-15
-5.68944e-14
-5.33465e-14
-1.11453e-11
-6.17955e-12
5.21263e-12
7.58671e-12
-3.28759e-11
3.21112e-11
-7.97096e-13
-4.3602e-13
1.79878e-14
2.44973e-13
2.94195e-13
4.70543e-11
-7.44005e-12
-1.47291e-12
-3.18127e-13
-2.44197e-11
9.91355e-11
-1.05836e-12
-9.70832e-13
1.29502e-12
5.92761e-11
-3.37022e-11
-1.04575e-11
-3.42871e-11
1.32382e-11
-5.45542e-11
1.45346e-13
-8.42552e-12
-2.15393e-11
-2.03319e-11
1.00521e-12
-1.38452e-11
5.7821e-12
-1.012e-12
2.71437e-14
3.86948e-12
6.67902e-12
-5.7823e-13
0
-7.48264e-15
-9.69211e-11
-1.42962e-11
7.99053e-12
-1.47359e-13
-1.27539e-11
3.1801e-11
-1.58083e-11
-1.91511e-12
4.46455e-13
2.74239e-13
3.08158e-11
1.23236e-11
-4.41345e-11
-2.84263e-13
-2.58146e-13
2.51633e-12
2.07892e-13
3.86957e-12
1.4891e-13
1.42527e-13
-7.76688e-15
1.08239e-13
-1.37136e-13
8.93547e-14
-3.57497e-14
1.60813e-13
-2.26155e-11
-2.23402e-11
0
2.19879e-13
-3.42015e-13
1.29343e-14
2.31851e-13
-8.17457e-14
6.64843e-14
3.48302e-14
5.44398e-14
1.48946e-13
-1.48766e-13
3.70555e-13
-2.66888e-13
8.51583e-13
2.5996e-13
4.14117e-13
1.18038e-12
-8.82347e-13
7.34466e-14
-5.50607e-12
1.47355e-13
-1.57936e-11
5.56797e-13
2.89709e-12
3.01251e-12
-9.67912e-11
-6.50518e-11
9.26847e-13
1.83448e-11
-4.86287e-12
3.88416e-11
7.779e-12
1.3809e-12
5.80728e-13
-2.61825e-11
6.95117e-12
-3.55353e-11
1.46147e-11
-5.03292e-11
8.68856e-12
-2.89652e-13
4.33274e-11
-5.79052e-11
-4.6539e-11
2.75143e-12
-8.14852e-12
2.89385e-11
-5.17925e-11
-1.7486e-12
-5.52753e-12
3.2873e-11
4.8047e-11
-2.61711e-11
-4.5046e-11
5.45281e-12
-1.63712e-12
-9.10267e-12
1.0264e-11
-2.83588e-13
1.28947e-14
-5.00286e-14
4.2495e-11
4.20596e-13
-4.34418e-12
-9.82348e-12
-1.48925e-13
-2.55975e-14
4.11545e-13
-1.69465e-11
-1.81395e-11
1.75312e-11
1.73469e-11
-7.5951e-13
-2.27075e-11
-2.32364e-11
-2.97865e-13
1.67459e-13
2.77733e-13
-1.47819e-13
-1.50453e-13
-1.8126e-13
9.31085e-14
2.04598e-11
-1.52393e-13
-2.02604e-11
3.21432e-11
-8.48827e-12
3.36181e-11
6.07701e-13
3.0654e-13
-5.27532e-13
-1.29828e-13
7.313e-14
1.78162e-13
7.44283e-13
3.83427e-12
3.93303e-12
-6.79112e-13
1.32755e-12
-7.10814e-13
1.79486e-12
1.44751e-10
5.50386e-11
0
-5.89987e-13
-1.31198e-12
-5.16231e-11
1.04525e-10
4.45497e-12
0
-7.26129e-13
-1.01407e-11
-9.9401e-11
-3.68492e-13
6.24447e-12
4.35701e-13
1.22086e-12
-5.45248e-12
-1.18126e-12
4.35664e-13
0
-3.55998e-11
4.89185e-11
5.65266e-12
1.45769e-13
0
-2.41344e-13
5.88867e-11
-1.43176e-11
1.47494e-13
-6.40187e-12
-8.06261e-13
-6.52957e-12
-9.52944e-12
3.24531e-11
-3.26754e-11
-5.12447e-13
4.38588e-11
-5.35298e-11
2.11414e-11
2.05565e-11
9.0708e-14
-3.55755e-11
-2.53675e-13
1.51521e-11
-1.92863e-13
9.49225e-12
-9.04461e-14
-9.93027e-12
-2.97966e-13
0
-5.02902e-13
4.14695e-14
1.05613e-13
9.47052e-14
5.38329e-15
-4.85478e-12
-5.474e-15
6.13373e-13
-4.46957e-12
-2.3666e-11
-2.30191e-11
3.06771e-11
-3.13421e-11
5.00382e-11
-4.97025e-11
-2.70177e-13
-8.83651e-13
5.08073e-13
6.40155e-12
5.45676e-12
-2.26264e-13
5.25379e-13
3.63735e-13
-4.06124e-13
4.12499e-13
5.44366e-11
1.37679e-12
-3.19132e-11
6.93138e-12
-2.84063e-11
-7.19412e-11
2.45872e-11
7.29413e-14
2.03915e-12
6.52747e-12
-1.13092e-11
2.84496e-11
2.2112e-13
1.08785e-11
1.45061e-13
4.1225e-11
-5.04131e-11
4.0312e-11
3.43764e-11
7.28426e-13
6.60427e-13
4.16619e-11
3.70784e-11
-1.50025e-11
-1.91767e-12
-2.89637e-11
2.18107e-11
-2.3568e-12
-5.89946e-13
-1.07212e-11
-4.40831e-13
-7.13371e-13
-3.64379e-11
3.73801e-11
-9.77336e-13
2.00481e-12
-3.42412e-11
-1.28858e-11
8.93457e-12
-1.90693e-11
-1.50306e-11
1.90802e-11
1.49135e-11
-8.21525e-14
2.6388e-13
2.00546e-13
1.22413e-13
2.1166e-13
-4.47009e-13
0
6.59522e-13
1.87684e-13
-4.23886e-13
4.2064e-13
-1.5492e-11
1.52851e-11
1.53573e-11
-1.5953e-11
1.48972e-13
-4.47967e-11
-6.39878e-12
-6.64347e-11
-1.77177e-11
5.10106e-11
-4.13659e-11
4.16965e-11
1.49623e-14
-1.52059e-11
7.44183e-13
-1.47387e-13
3.87485e-13
-1.88558e-12
1.73739e-12
1.35472e-13
-6.2067e-11
-2.9159e-11
6.50347e-11
-1.93446e-13
5.89419e-13
5.52525e-12
-3.45309e-11
-6.74215e-12
5.95469e-11
-1.42457e-11
-5.6424e-12
9.38995e-13
-8.48084e-11
-4.39679e-11
7.37792e-12
2.51751e-11
2.5307e-11
1.89409e-12
-1.22396e-11
6.51013e-12
-5.81692e-12
1.114e-11
-4.13562e-11
-1.21682e-11
-1.20662e-11
1.6216e-11
3.25575e-11
4.027e-12
-1.30776e-11
-4.18564e-11
-1.19099e-11
3.14053e-11
1.93258e-11
-2.76856e-12
-1.37681e-11
-3.33692e-11
4.20313e-11
-8.4865e-12
-3.69399e-11
-3.02243e-11
1.48969e-13
-1.71947e-13
-2.30277e-11
-3.89099e-13
2.2949e-11
1.29263e-13
-7.32491e-14
3.54013e-14
6.53175e-14
1.48999e-13
0
1.72145e-11
-1.62514e-11
-1.70641e-11
3.40105e-13
-2.06136e-14
1.59524e-11
5.49791e-14
-1.93578e-14
1.48977e-13
1.4883e-12
-8.95012e-14
-8.93349e-13
6.80216e-13
-2.33459e-13
-1.55985e-13
-4.00695e-13
3.05038e-11
-3.09922e-11
5.95317e-13
5.15706e-12
-1.19413e-11
9.39156e-11
1.73955e-12
5.89797e-13
2.42988e-12
-4.04358e-13
6.6045e-11
1.24405e-11
3.7419e-11
-7.12027e-12
2.19338e-13
3.96492e-11
3.77218e-11
-8.7169e-13
7.3729e-12
-4.19224e-11
6.06821e-11
1.00358e-11
4.91489e-12
-5.49391e-12
-1.31215e-12
3.28627e-12
1.37979e-11
-6.3609e-12
3.43032e-11
2.75066e-11
3.25018e-11
4.06259e-11
-3.99605e-11
-2.94798e-13
6.92746e-12
-1.06471e-11
1.70521e-11
-2.10734e-11
2.97739e-13
8.79863e-14
4.62218e-11
-4.63493e-11
-3.96168e-11
3.94687e-11
-1.39049e-13
0
-1.74783e-13
6.40254e-12
-7.44865e-13
1.08861e-13
1.14377e-12
2.24518e-11
-9.71616e-13
-1.73351e-11
2.27479e-11
-5.14669e-12
-2.28137e-11
1.49011e-13
1.71375e-11
1.65294e-11
-6.9096e-13
9.93827e-14
1.88342e-11
-1.59489e-13
-1.85364e-11
2.67794e-14
-2.60011e-13
0
2.60552e-11
-8.40719e-12
3.45625e-11
9.02826e-14
2.10233e-13
-1.12986e-12
6.49663e-13
0
-3.22369e-11
3.23058e-11
2.94799e-13
-6.60007e-11
9.03451e-11
5.81139e-13
1.0264e-10
7.24067e-11
-9.10563e-11
-6.30001e-13
-4.13549e-11
5.45281e-12
-2.36972e-11
-2.60401e-11
5.17783e-12
1.94796e-11
8.72116e-13
1.44649e-13
-2.31363e-13
1.15297e-12
1.32601e-11
1.33069e-11
2.89316e-13
-5.88195e-14
-1.09866e-11
1.13029e-11
1.98189e-11
7.27101e-12
-1.1006e-12
4.19189e-12
3.39189e-11
-5.81706e-12
-4.42325e-13
-1.76862e-12
-8.63327e-13
-3.66018e-11
3.99603e-11
7.29637e-12
4.43817e-11
-5.58881e-11
1.04885e-11
-5.13035e-11
1.56745e-11
-1.03325e-12
3.68941e-11
3.30426e-11
3.50051e-11
-1.49017e-13
-4.49164e-12
5.07762e-13
1.95405e-11
-1.37003e-13
-1.52725e-11
-1.11146e-13
-1.70264e-11
-1.55779e-13
1.72917e-11
5.0706e-12
6.69487e-15
-5.72686e-12
-4.80976e-14
5.65175e-13
8.10378e-14
1.11339e-13
-1.5533e-13
-1.82568e-11
-1.83432e-11
-4.61971e-12
3.04434e-13
2.97993e-13
4.15187e-13
-8.74166e-14
3.03694e-11
-3.08462e-11
4.0252e-11
-4.09246e-11
-5.21518e-12
-2.09632e-11
1.86308e-11
1.19756e-12
-6.85628e-11
-2.35867e-12
-1.94972e-12
-6.59132e-11
3.86552e-13
1.16382e-11
6.64162e-12
-1.4574e-13
3.6894e-14
-2.26417e-12
-1.06755e-11
0
-1.90043e-11
-4.21679e-11
2.62926e-13
1.33166e-11
2.19042e-11
0
3.31881e-11
-1.8569e-11
-1.34129e-11
4.64288e-12
3.19214e-11
3.16629e-11
8.74727e-13
1.32028e-11
-2.4931e-11
-1.47649e-13
-4.36397e-11
6.78885e-11
0
2.65835e-12
-2.53348e-12
-1.54975e-11
-3.3823e-11
3.27605e-11
-2.39742e-12
3.98301e-11
-3.74887e-11
1.46307e-12
4.28896e-13
5.20332e-11
0
-1.60204e-11
-1.13869e-13
1.60566e-11
-1.40374e-13
7.36569e-14
4.72083e-13
-1.60275e-13
-1.80529e-13
4.47521e-13
0
2.22152e-13
8.22025e-14
-2.34936e-13
9.77823e-14
4.35971e-14
-8.5504e-14
-9.09876e-14
-2.3164e-11
-2.32842e-11
8.95501e-12
-4.94209e-13
5.96371e-13
-2.14289e-13
5.11959e-13
-2.96224e-13
-9.70888e-13
4.47199e-13
-4.18789e-11
-1.67144e-11
4.44584e-13
6.48537e-12
-8.27825e-11
5.21683e-12
2.39085e-13
2.08754e-12
-1.13458e-12
-9.00597e-11
-6.26028e-11
5.92679e-13
2.64262e-11
-2.68215e-11
5.85857e-11
-2.61888e-11
0
-1.96144e-11
2.28454e-12
-3.21169e-12
1.46094e-12
-8.19608e-12
5.85524e-13
6.70592e-13
3.52414e-11
1.9532e-11
-5.26949e-12
1.1746e-12
4.11601e-11
-5.42893e-11
2.8094e-11
-5.28565e-12
-6.96568e-12
-4.42604e-13
3.40066e-11
-4.40985e-11
5.33622e-12
3.01469e-11
-9.9976e-12
-7.85155e-12
3.90193e-11
1.10562e-14
3.12498e-13
1.95046e-13
-8.76535e-13
7.52496e-13
-7.16663e-12
-1.20883e-11
-1.18916e-11
1.83935e-11
3.98621e-13
-1.85073e-11
-4.23844e-14
3.12011e-13
1.87678e-11
-2.4619e-13
-1.89601e-11
-2.98453e-13
1.68092e-11
3.36677e-13
-1.63768e-11
-1.08425e-14
-2.21188e-11
-2.04403e-13
2.18276e-11
3.83105e-13
0
1.49299e-13
7.02837e-13
-5.97851e-13
8.06085e-14
-2.0693e-13
1.29259e-13
-3.31506e-13
5.24621e-13
2.50578e-12
-6.12037e-12
4.91115e-12
-1.01113e-11
-2.87016e-11
4.21482e-13
-5.40944e-13
-3.79588e-13
-6.63929e-13
-1.06564e-13
1.18113e-11
2.14267e-11
1.64542e-11
4.26415e-11
-1.05385e-10
1.5464e-11
2.96408e-13
5.03516e-12
4.30679e-13
-1.04784e-11
8.01325e-12
-1.33258e-11
3.73205e-11
2.43844e-11
-1.49836e-12
-9.92978e-12
2.94663e-11
1.05255e-11
-9.86123e-13
2.54343e-12
1.32987e-11
1.03756e-12
-9.52492e-12
2.08713e-11
-2.90319e-13
-2.59787e-12
-8.92995e-13
2.86618e-11
2.91307e-11
-2.28443e-13
-1.78485e-11
6.0123e-12
-1.78768e-13
-3.21119e-11
3.32746e-11
2.50237e-14
-2.58332e-11
-1.49187e-13
-1.71377e-11
3.61806e-14
1.69737e-11
1.47439e-13
4.41567e-14
1.37981e-13
5.37528e-13
1.27568e-14
-7.46162e-13
-1.35486e-11
-6.67351e-12
2.97301e-11
2.22232e-11
2.98303e-14
5.46216e-13
1.94651e-11
-4.68118e-13
-1.97167e-11
1.48867e-13
-1.29522e-11
5.95026e-11
-6.38972e-11
6.25294e-11
-4.40335e-11
3.10175e-11
-3.11955e-11
6.22052e-13
3.4855e-14
-2.64942e-11
-1.48607e-13
-2.62375e-13
0
-2.10917e-11
2.42396e-11
2.10456e-11
1.7903e-11
-5.91166e-11
-4.8115e-11
2.77834e-11
-1.48355e-13
-2.41077e-11
-1.31497e-12
3.76244e-11
-8.31534e-11
4.85315e-11
-1.13654e-11
2.85681e-12
3.70202e-13
6.37805e-12
-7.41545e-13
9.92781e-12
9.52571e-11
1.13303e-11
-3.69546e-13
3.35089e-11
-2.12601e-12
-4.06565e-11
4.67327e-11
2.8174e-11
-2.66957e-12
-4.05529e-11
5.34605e-11
-1.19682e-11
2.90125e-13
-8.27606e-13
3.03387e-13
-7.43104e-11
-1.49299e-11
1.48288e-13
-4.45072e-13
-2.87842e-13
-1.74342e-11
-1.99912e-11
-4.46621e-12
4.17335e-11
-3.62183e-11
4.7942e-11
-4.24151e-11
7.12027e-12
-9.21301e-12
-1.61139e-12
-5.0997e-13
-1.70753e-12
7.86548e-11
8.60558e-13
-2.33343e-12
2.16982e-12
9.10469e-12
2.08036e-12
-2.9771e-12
2.37302e-13
-4.27926e-11
4.3124e-11
-1.61566e-12
1.38222e-12
-4.12106e-11
4.1208e-11
1.04055e-13
-2.53101e-12
2.97691e-13
2.49096e-13
-3.6688e-14
1.59722e-11
-4.80079e-13
4.75265e-13
4.54424e-13
-1.62768e-11
-3.45822e-13
0
-1.48471e-13
-2.85443e-12
-1.1536e-13
-4.26975e-13
-2.09586e-11
3.31078e-12
4.23014e-11
1.6304e-11
-2.44241e-12
2.82071e-12
1.98821e-11
-2.34715e-11
-2.0634e-11
2.30853e-11
6.91025e-13
-2.93267e-11
-1.29069e-11
2.99032e-11
-2.22492e-11
8.45625e-12
1.4817e-13
5.65015e-12
-1.01706e-11
-3.81791e-11
3.80787e-11
-1.02964e-11
1.03815e-11
7.48831e-13
1.02276e-11
-1.48147e-13
0
8.04024e-12
1.09862e-13
-6.66437e-12
7.08986e-12
3.34111e-11
-3.32447e-11
-1.89982e-13
-1.39388e-11
-1.90914e-11
-1.4798e-13
-2.95151e-13
-4.96724e-11
2.00694e-11
1.07807e-13
-7.36484e-12
1.44146e-13
-4.46805e-11
1.48283e-11
-2.95927e-13
2.07174e-11
3.26155e-11
-1.20076e-11
2.24719e-11
-2.06796e-11
-1.06133e-11
-7.60095e-14
4.2389e-11
-6.60245e-12
-1.87917e-11
2.16107e-11
-1.35849e-11
-2.86193e-11
-2.76417e-12
6.81548e-11
-1.26908e-11
-7.43405e-11
4.22567e-11
1.22789e-11
-1.48007e-13
-3.14256e-11
-2.60892e-11
-3.32299e-11
3.33752e-11
-4.59218e-13
-3.1929e-11
3.08184e-11
-3.93488e-13
-3.24584e-11
2.51999e-12
1.48374e-13
1.8359e-14
3.97275e-11
-7.37544e-13
-2.08512e-11
-7.01196e-12
-2.0631e-12
-2.32292e-11
2.25762e-11
2.40384e-11
2.01885e-11
1.76194e-11
-1.13545e-13
2.14986e-11
-4.39515e-14
-1.84132e-11
-1.03593e-12
-2.16347e-11
2.57537e-12
2.31603e-11
-7.41011e-13
-1.16948e-12
-3.00233e-12
1.78083e-13
2.63688e-12
-2.23355e-14
9.77254e-14
4.48876e-13
7.24754e-13
-1.48196e-13
-1.4812e-13
1.14651e-13
-1.559e-14
8.30648e-14
5.56664e-14
-4.39752e-14
-3.5022e-14
-5.91459e-14
-3.46819e-14
-1.48112e-13
-5.18023e-12
-5.16273e-12
2.86641e-13
-2.04786e-13
2.14494e-11
-3.83582e-14
-3.72156e-11
1.59979e-14
1.59522e-11
0
3.38744e-11
1.70884e-11
-1.96864e-11
-2.31255e-11
2.75292e-12
2.31759e-11
1.01713e-13
2.13198e-13
-9.24454e-14
-2.95839e-13
-2.30719e-11
-2.00834e-13
2.34279e-11
4.91814e-13
-2.58275e-13
-6.19639e-13
-3.32503e-13
-2.13751e-11
3.81546e-13
2.12977e-11
4.4369e-13
-1.98414e-11
-6.16036e-13
2.04211e-11
-3.63609e-14
-1.48958e-11
2.50095e-14
1.47897e-11
-8.68004e-14
0
-1.47925e-13
-2.56603e-11
-1.37919e-13
2.49343e-11
-2.80013e-14
1.57007e-11
1.30427e-13
-1.5281e-11
-2.33856e-13
0
-1.64295e-11
-1.67207e-11
1.00147e-13
7.4884e-14
-3.95853e-14
-2.40667e-11
1.67855e-14
2.40371e-11
2.1324e-13
1.48019e-13
0
2.57585e-14
1.80692e-11
-2.24091e-13
-1.81907e-11
2.55424e-11
3.98285e-13
-2.54928e-11
1.9935e-13
1.48122e-13
0
-4.53928e-13
-2.02171e-14
3.32292e-13
-3.92087e-14
6.66043e-13
4.92232e-14
-5.46979e-13
1.47366e-14
0
1.48052e-13
1.36342e-11
3.2415e-13
-1.36684e-11
2.04837e-13
-8.5193e-14
-1.71319e-11
-5.33172e-13
1.67694e-11
1.48051e-13
0
-6.30869e-13
1.55774e-11
5.61766e-13
-1.55128e-11
5.15034e-12
-1.89216e-13
-5.28907e-12
-3.78288e-14
1.48001e-13
1.62734e-11
1.64763e-11
1.47607e-13
2.26361e-13
-2.98968e-13
-1.35123e-13
-1.41962e-11
-1.54778e-11
1.44575e-11
1.53857e-11
1.56768e-11
1.59717e-11
-2.04603e-11
-1.41815e-11
1.71933e-11
1.08696e-11
-1.73224e-11
3.21853e-12
2.09801e-11
1.47898e-13
-1.70057e-11
-1.78245e-11
1.61126e-11
3.84852e-11
2.87029e-11
-2.17739e-11
-2.92822e-11
5.88428e-13
1.91656e-12
7.3943e-13
1.47875e-13
-3.00235e-14
-1.82999e-13
1.68116e-13
5.88457e-13
-4.33769e-16
5.09955e-13
-2.85263e-13
-8.72063e-13
-1.47888e-13
-2.14444e-11
-1.6145e-11
2.12502e-11
1.60774e-11
-2.14503e-11
-2.2108e-11
2.17075e-11
5.40312e-12
-1.37365e-13
1.65653e-11
1.47939e-13
1.15015e-13
-1.15443e-14
4.25037e-13
-1.21693e-13
-6.37056e-13
-1.26213e-13
1.53061e-13
1.71385e-11
1.70141e-11
-2.11637e-11
-1.99378e-11
2.09749e-11
4.26215e-11
5.10234e-13
-2.2667e-11
-6.38023e-13
1.86868e-13
-4.97002e-14
0
1.48043e-13
-8.28235e-13
-2.95295e-13
1.09428e-12
-1.79921e-11
-3.52904e-13
-2.80359e-12
2.61692e-11
2.04802e-11
-2.54647e-11
-1.68686e-11
-1.67889e-11
5.17132e-13
-4.35978e-13
-4.70612e-13
5.68476e-13
-3.45677e-13
-2.2272e-13
3.10687e-13
-1.47972e-13
-5.91772e-13
2.19646e-11
2.26466e-11
-4.87399e-13
-1.94761e-11
2.08208e-13
1.87788e-11
1.68318e-11
-1.13141e-13
-1.65699e-11
-1.77492e-12
1.62306e-11
3.32448e-12
-1.52493e-11
-7.12821e-13
1.53519e-11
3.66168e-11
-1.45335e-13
-2.09614e-11
-1.47914e-13
8.87305e-13
1.17557e-12
1.44022e-13
-2.25783e-11
-2.41975e-11
2.25994e-11
2.42911e-11
-3.8193e-14
4.56859e-13
5.9157e-13
2.02586e-11
2.00777e-11
-3.86245e-13
-2.00735e-11
1.49919e-14
2.04615e-11
-1.77354e-11
1.57545e-11
2.08238e-11
-1.19787e-11
2.05542e-11
1.19732e-13
-2.05347e-11
2.51322e-14
1.06641e-13
-1.12642e-13
-2.33262e-13
1.74739e-13
1.54974e-11
1.53801e-11
0
1.6801e-11
-1.63396e-13
-1.7578e-11
1.47898e-13
-8.4705e-14
-3.18451e-14
2.11281e-11
-2.54642e-13
-2.04096e-11
-1.47907e-13
2.04518e-13
-9.37749e-14
-2.1527e-11
-9.85531e-13
2.15156e-11
3.70341e-13
-4.1586e-13
5.91839e-13
2.95836e-13
-1.47939e-13
-1.80239e-13
-5.65008e-14
2.81701e-13
-2.42233e-14
-8.4291e-14
1.16426e-15
-1.64497e-11
-2.95817e-13
1.64222e-11
2.95928e-13
-5.50371e-14
-3.86369e-13
-7.23966e-14
1.59585e-13
2.83285e-12
-6.90683e-15
-2.80041e-12
2.14659e-13
0
-8.94951e-12
-9.66574e-12
-6.3015e-13
1.00919e-12
-2.94357e-13
-9.08034e-13
2.11293e-13
-6.16031e-14
-8.47421e-14
-3.6957e-13
-7.38528e-14
-1.81912e-14
-3.02937e-13
1.76614e-11
-4.95386e-12
-1.81642e-11
5.01258e-12
4.64468e-13
2.36566e-13
2.2176e-13
-5.17546e-13
-9.48551e-14
-1.53213e-11
-1.66715e-13
-4.59179e-12
-1.66552e-11
2.03801e-11