/*--------------------------------*- C++ -*----------------------------------*\
  =========                 |
  \\      /  F ield         | OpenFOAM: The Open Source CFD Toolbox
   \\    /   O peration     | Website:  https://openfoam.org
    \\  /    A nd           | Version:  10
     \\/     M anipulation  |
\*---------------------------------------------------------------------------*/
FoamFile
{
    format      ascii;
    class       volScalarField;
    location    "0.9";
    object      gradTy;
}
// * * * * * * * * * * * * * * * * * * * * * * * * * * * * * * * * * * * * * //

dimensions      [0 -1 0 1 0 0 0];

internalField   nonuniform List<scalar> 
47104
(
4.37803e-13
4.37779e-13
2.88613e-13
-9.20384e-15
-4.45675e-13
2.97116e-13
2.2446e-11
3.07238e-13
-2.88822e-13
-1.70059e-11
6.04907e-13
4.36832e-13
6.80959e-13
5.05314e-12
-2.60679e-13
-5.6433e-13
-2.28485e-13
-1.61034e-13
1.26068e-13
3.07191e-13
1.57827e-11
6.87992e-13
2.85917e-14
2.0725e-13
5.22688e-13
7.89908e-14
-2.25023e-11
-1.04742e-12
-4.27947e-14
1.70399e-11
1.48086e-13
3.07703e-13
-9.81717e-14
-4.93413e-12
3.91859e-13
4.5955e-13
4.8656e-14
1.45011e-13
-2.8402e-13
-4.05161e-13
-1.62283e-11
-7.02995e-13
1.0805e-12
-1.17306e-13
1.16798e-12
1.35866e-13
4.38218e-12
3.83547e-13
1.72859e-11
-3.5917e-13
-3.65078e-13
1.53867e-11
-3.46931e-13
2.46253e-15
-1.02547e-13
-2.94533e-13
2.78303e-16
1.27164e-13
2.72885e-12
1.23739e-13
8.61442e-14
5.1129e-13
-8.31359e-13
-4.95516e-13
-2.35255e-11
2.44905e-14
-4.53008e-12
-7.57117e-14
-1.7464e-11
5.2353e-13
1.98883e-13
-1.53344e-11
-1.79397e-14
8.20593e-13
2.86537e-13
2.51101e-13
-1.00785e-13
1.77419e-11
-2.90841e-12
1.8276e-11
-2.16963e-14
-2.46749e-13
3.93459e-13
1.60857e-13
2.31183e-11
-1.70634e-11
-1.58003e-14
-8.66781e-13
-1.61571e-11
-5.6898e-13
9.51284e-15
1.39735e-13
4.37336e-13
-7.34223e-13
1.48533e-13
-1.72302e-11
1.57886e-13
-1.80281e-11
-1.6108e-11
-1.818e-11
-8.91003e-14
0
-2.86715e-11
-1.17889e-11
1.49178e-13
-1.49177e-13
2.38761e-11
1.553e-11
-1.8668e-11
6.01163e-14
-1.21128e-11
-7.90901e-14
1.58254e-11
7.92629e-12
5.08561e-12
-5.79609e-12
-7.21587e-12
-5.31249e-12
1.46467e-13
-4.41381e-13
-3.47331e-13
-1.14037e-13
2.7105e-11
1.94295e-11
-4.89917e-13
-2.49477e-13
-3.08551e-11
-2.08162e-11
1.96622e-12
-1.75397e-11
1.26798e-11
5.97096e-14
1.01938e-13
-3.63141e-11
1.50762e-12
4.75477e-11
-9.10005e-15
-1.7493e-13
1.65719e-13
-1.8989e-11
-1.57737e-11
-1.07752e-13
4.16619e-11
3.71133e-11
-8.82653e-13
-4.74375e-11
9.01105e-13
2.29084e-13
-3.88765e-12
1.75349e-12
-1.62193e-11
2.25747e-11
-4.08169e-11
-1.04917e-13
8.08003e-13
4.53536e-14
-5.98503e-13
-4.24694e-13
-1.8398e-11
3.53778e-11
1.60287e-11
-1.5149e-13
-3.43853e-11
-3.1363e-11
3.38857e-11
2.11499e-13
5.28566e-13
3.14203e-13
2.03829e-11
1.59645e-11
1.60234e-11
-6.29223e-12
3.38644e-11
3.11646e-11
-3.58921e-11
-1.06228e-12
1.8806e-13
-6.00728e-14
1.83019e-11
-3.27556e-11
-1.89758e-13
-5.08505e-13
3.02993e-12
-1.1738e-11
-1.12168e-13
-2.03777e-11
-2.20567e-11
-3.36682e-13
-6.89695e-14
-7.77348e-14
0
-1.61271e-11
-9.7039e-12
-2.9838e-13
4.47445e-13
-2.47595e-11
-1.6114e-11
1.19447e-12
2.98674e-13
1.58164e-11
2.09334e-13
8.95688e-12
-2.16253e-11
-2.22016e-11
-8.19694e-12
-4.47107e-13
1.04303e-12
-1.49134e-13
7.9112e-12
6.01426e-14
-4.92883e-12
-4.77056e-11
-4.08836e-11
-3.09378e-11
3.86512e-12
6.45519e-13
-1.93597e-12
-3.44167e-13
1.74851e-13
1.17813e-13
-2.2948e-13
2.88174e-11
-8.39499e-12
4.26084e-10
7.35432e-10
7.33549e-10
7.40005e-10
-5.89082e-11
-2.26431e-13
-2.41335e-13
5.22211e-12
-9.3534e-13
7.06181e-12
-2.56012e-07
-3.01879e-07
-3.08603e-07
-2.62009e-07
-1.45638e-08
-6.4008e-13
-5.92838e-14
-2.64721e-13
5.93017e-13
-3.9327e-11
-1.26103e-08
9.26524e-08
9.82185e-08
7.49678e-08
-2.96067e-09
-6.79584e-14
3.62899e-15
-3.41118e-14
2.38697e-13
3.97538e-11
2.93682e-09
-2.08316e-08
-2.22797e-08
-1.67066e-08
7.05579e-10
2.75539e-13
6.94903e-14
4.6866e-13
-1.7799e-12
3.53088e-12
3.58144e-08
-2.63967e-07
-2.76065e-07
-2.204e-07
8.22215e-09
-5.55977e-11
-2.97838e-13
-6.24252e-14
1.15622e-12
-2.66857e-12
3.49335e-08
5.77053e-08
5.91499e-08
5.34115e-08
-1.70807e-09
9.50827e-11
1.67203e-13
4.36654e-14
-2.98428e-13
1.03239e-13
-3.37258e-11
-2.66209e-13
-3.44299e-13
-2.5947e-13
4.03682e-11
-3.92921e-11
2.06563e-13
1.49184e-13
-2.07437e-11
2.35551e-11
-1.20658e-11
1.23674e-11
-6.85455e-12
-8.93881e-13
1.68497e-11
5.82108e-12
-2.98375e-13
-1.74154e-11
-2.97288e-13
-4.42999e-13
-2.45005e-11
-2.19753e-11
2.94472e-11
-1.59918e-11
-4.28183e-12
-1.09974e-11
-1.97935e-11
-1.73509e-11
-1.56083e-13
3.7167e-11
1.12964e-08
1.03192e-08
1.02479e-08
1.06676e-08
8.86514e-09
-2.83673e-11
-3.29765e-13
8.33322e-14
0
-2.30029e-09
0.000101985
0.000105599
0.000106243
0.000105069
0.000103588
9.02576e-09
2.84123e-12
5.35689e-13
-5.67932e-11
-4.02573e-07
-1.05163
-1.64304
-1.65182
-1.63013
0.215739
3.39422e-08
8.47308e-14
-1.77273e-11
-1.31626e-11
-1.07059e-09
-0.0077127
-0.0260282
-0.0271305
-0.0247339
-0.0195454
1.66761e-09
1.70643e-11
-2.25488e-13
5.28659e-12
1.40331e-09
0.000489436
0.00154401
0.00162039
0.00145671
-0.0212905
-3.83026e-10
9.21301e-14
3.35651e-11
2.96922e-11
1.61076e-08
0.0207959
0.0738197
0.0757937
0.0710446
-0.0225744
-7.07901e-09
-5.15744e-14
-2.49664e-13
6.16548e-11
1.0408e-06
0.897692
1.14564
1.14988
1.13667
-0.233609
-6.26953e-08
-1.65249e-13
-1.55895e-11
2.64375e-13
6.98148e-08
5.8288e-06
5.29197e-06
5.26884e-06
5.38514e-06
3.74713e-06
-3.05425e-11
3.21519e-14
-1.48842e-13
-8.91552e-13
3.0113e-11
2.52278e-11
3.39831e-11
1.84575e-11
1.84842e-11
-1.47648e-13
2.64548e-11
2.977e-13
-1.96238e-11
4.45245e-13
-6.90654e-12
-8.53514e-11
-1.06985e-10
-1.03665e-10
-7.01263e-11
1.17566e-11
-4.45151e-13
-2.82407e-12
-2.23453e-11
6.51133e-13
-6.18601e-10
-3.42107e-07
-6.22898e-07
-6.03595e-07
-6.62191e-07
2.45142e-08
-6.74007e-14
-2.41936e-11
1.9173e-11
1.23932e-11
-1.72336e-06
-1.06541
-1.29202
-1.29445
-1.28869
0.00912143
5.46069e-08
2.75991e-12
2.23842e-11
4.56549e-09
0.028635
2.15338e-05
2.49219e-11
1.61444e-13
1.72973e-09
0.000767557
1.52144e-06
2.57847e-11
-2.06583e-13
-3.32532e-10
0.000173156
-2.53684e-07
-7.78452e-13
-7.21838e-13
-4.26147e-09
-0.0014052
-6.60482e-06
-2.63395e-11
2.23654e-13
8.6599e-10
0.00138498
3.12743e-06
2.43661e-13
-2.5014e-13
-3.5571e-11
6.03619e-07
0.00121295
0.0014911
0.00149443
0.00147729
-7.75954e-05
6.46186e-10
5.22852e-14
-1.4865e-13
5.93432e-12
-1.46902e-12
7.56119e-11
8.7023e-11
1.04526e-10
1.23403e-10
-1.6165e-11
2.76025e-11
-1.48668e-13
-1.56141e-11
-1.03992e-12
1.47047e-12
-6.65717e-11
-1.03916e-10
-1.15617e-10
-7.87895e-11
2.17719e-11
1.32212e-11
0
-1.3534e-13
6.30802e-12
-7.48111e-10
-2.86311e-07
-6.56793e-07
-6.32065e-07
-7.06359e-07
2.67733e-08
-1.0673e-11
1.78561e-11
1.54401e-11
1.42506e-11
-1.91781e-06
-1.09596
-1.3489
-1.3523
-1.3441
0.0103426
5.78008e-08
-1.51736e-11
5.66134e-13
4.71883e-09
0.0358696
2.53667e-05
-1.74108e-11
3.8923e-13
2.33854e-09
0.000981035
2.09922e-06
1.67097e-11
-2.96319e-13
-3.79553e-10
0.000124235
-3.42598e-07
1.67266e-11
1.63508e-11
-5.76421e-09
-0.00373118
-8.616e-06
-4.56905e-12
9.58899e-12
3.51643e-10
-0.00194778
3.52378e-06
-1.6701e-11
-1.7263e-11
4.86286e-13
6.38888e-07
0.00124525
0.00161138
0.00161649
0.00156713
-2.77165e-05
8.15224e-10
3.14329e-12
-9.66437e-12
0
-2.94011e-12
9.42591e-11
1.07079e-10
1.04348e-10
7.64491e-11
7.05877e-12
3.66915e-11
-2.9742e-13
-1.04154e-12
-7.43443e-12
3.82651e-12
-6.38553e-11
-9.83328e-11
-9.40103e-11
-7.20155e-11
-4.26975e-12
5.50129e-12
1.74057e-11
-2.60179e-11
-9.49845e-12
-8.22176e-10
-2.64046e-07
-6.28268e-07
-6.02015e-07
-6.82164e-07
2.68779e-08
5.56445e-14
-7.41742e-14
-2.75694e-13
5.02893e-11
-1.91539e-06
-1.09737
-1.35148
-1.35501
-1.34654
0.0103457
5.8049e-08
-1.77529e-11
2.50446e-11
4.4909e-09
0.0358799
2.56525e-05
-1.70755e-11
-2.36762e-11
2.53506e-09
0.00100651
2.18157e-06
3.1703e-13
3.94889e-14
-3.56162e-10
9.7551e-05
-3.57126e-07
1.71009e-11
2.3819e-11
-5.91804e-09
-0.00195109
-8.77997e-06
2.21987e-11
-2.52658e-13
5.20859e-10
0.00148346
3.53389e-06
-2.39028e-13
-1.56178e-13
-4.07402e-11
6.3997e-07
0.00124832
0.00161742
0.00162298
0.00159248
-8.42425e-05
8.20895e-10
-2.25872e-11
1.48765e-13
-2.11049e-11
1.3095e-11
5.20925e-11
1.18822e-10
1.18398e-10
6.89394e-11
-1.17739e-11
6.69055e-12
-1.48797e-13
0
3.60013e-11
-3.97603e-12
-7.60957e-11
-1.08227e-10
-1.36271e-10
-3.6321e-11
3.5357e-12
-5.50435e-12
-5.9536e-13
7.45202e-14
4.44991e-11
-7.9072e-10
-2.61464e-07
-6.26593e-07
-6.00294e-07
-6.81e-07
2.69065e-08
2.90283e-12
-5.41279e-13
-3.4812e-13
6.846e-12
-1.83637e-06
-1.09737
-1.3517
-1.35525
-1.34674
0.0103462
5.7877e-08
1.68203e-11
3.88244e-13
6.89368e-09
-0.00424787
2.56627e-05
5.40687e-13
9.061e-13
2.82196e-09
0.00160857
2.18348e-06
-1.63062e-11
-2.0381e-11
-2.89951e-10
0.000105734
-3.57499e-07
-2.76124e-13
-2.04883e-13
-5.90067e-09
-0.00189582
-8.79036e-06
-6.70466e-13
2.10028e-11
5.49808e-10
0.00148458
3.53554e-06
2.30972e-13
-6.08416e-14
-3.27255e-11
6.34861e-07
0.00124884
0.001618
0.00162348
0.00158948
-8.32832e-05
7.87371e-10
1.34943e-13
1.48836e-13
1.24912e-11
-2.48802e-11
8.10204e-11
1.2035e-10
1.09381e-10
9.01983e-11
-8.83624e-13
7.58693e-12
1.4887e-13
-4.46712e-13
-1.11615e-11
-2.65243e-12
-7.19714e-11
-9.29092e-11
-1.11151e-10
-8.52327e-11
-8.84432e-12
5.50638e-12
-2.97795e-13
-5.7511e-13
-3.90078e-12
-7.85257e-10
-2.76446e-07
-6.47081e-07
-6.22137e-07
-6.97984e-07
2.68725e-08
-4.82913e-13
-2.57162e-13
5.18132e-14
-3.53318e-13
-1.81066e-06
-1.097
-1.35069
-1.35416
-1.3458
0.0103592
5.77397e-08
-1.38116e-14
7.34397e-13
8.18216e-09
-0.00684091
2.53975e-05
3.97086e-13
1.70681e-11
2.79224e-09
0.00154452
2.10369e-06
1.7195e-11
-4.35203e-13
-3.30752e-10
0.000120869
-3.41445e-07
-9.64317e-13
-1.78814e-11
-5.79396e-09
-0.00186282
-8.61355e-06
-1.75575e-11
2.93321e-13
4.92997e-10
0.00148174
3.53395e-06
7.81237e-13
7.4667e-14
5.78414e-11
6.28972e-07
0.00124814
0.00161422
0.00161936
0.00157061
-2.7682e-05
8.1312e-10
-4.85014e-13
1.48892e-13
-5.80168e-12
-7.07098e-12
8.00988e-11
9.56467e-11
1.02458e-10
8.36156e-11
4.86298e-12
0
-7.44626e-13
-2.2786e-11
3.72134e-12
2.94974e-13
2.36087e-11
-8.70955e-12
-5.66136e-12
-3.49813e-12
-5.6053e-12
-3.24515e-11
1.48938e-13
-2.11758e-11
6.848e-13
-7.33842e-10
-1.39754e-07
-1.88928e-07
-1.66337e-07
-2.52676e-07
2.26576e-08
-7.31105e-11
1.6355e-11
4.52102e-12
7.73816e-12
-1.8879e-06
-1.07921
-1.31173
-1.31443
-1.30799
0.00934664
5.14131e-08
2.12103e-11
2.08691e-11
2.31464e-09
0.0302771
1.80108e-05
-1.60678e-11
8.95007e-13
6.28409e-10
0.0007988
1.26757e-06
-2.15272e-11
3.42264e-13
-9.17108e-11
0.000107388
-2.05267e-07
2.5556e-13
3.35556e-11
-1.76945e-09
-0.00139287
-5.1424e-06
3.07557e-12
-3.16391e-13
3.88964e-10
0.00145135
2.71299e-06
2.63256e-13
-1.69999e-11
-5.90198e-12
6.13937e-07
0.00107739
0.00122298
0.00122507
0.00122025
-7.41761e-05
7.14103e-10
-2.85961e-12
0
8.03544e-12
1.91667e-12
2.94305e-11
1.01596e-12
3.33838e-12
-2.94359e-11
-3.5246e-11
0
-4.46885e-13
0
5.95421e-13
-5.75305e-12
-2.14268e-11
6.38738e-12
-1.97423e-11
7.14109e-12
-5.45725e-12
-4.46621e-13
-2.68119e-12
3.10986e-14
-3.60994e-13
4.6208e-11
1.17783e-09
1.20014e-09
1.14179e-09
1.17835e-09
3.70898e-10
-2.30059e-11
2.12212e-14
4.8099e-14
2.97635e-13
-2.44707e-07
-0.000444356
-0.000461582
-0.000462099
-0.000461191
-0.000415739
1.11917e-09
2.58878e-12
1.09307e-13
-1.67567e-11
3.33468e-06
-1.36986e-08
1.9464e-11
1.65051e-13
-3.71165e-11
6.87213e-08
-1.00369e-09
-6.03116e-14
-1.63341e-11
3.36578e-11
1.89391e-08
1.1566e-10
-3.92445e-11
1.92219e-13
7.27432e-12
-1.85571e-07
3.64664e-09
2.37649e-13
1.59347e-11
6.77941e-12
-1.4585e-05
1.76099e-08
1.98533e-11
-3.2001e-13
4.64642e-13
4.13694e-08
-1.44521e-06
-1.51467e-06
-1.51948e-06
-1.49839e-06
-6.78842e-07
5.29246e-12
-1.49917e-13
0
-5.80369e-12
-5.89776e-13
2.06899e-11
-2.59807e-11
6.53212e-12
1.22425e-11
6.34198e-12
-2.38187e-12
1.48971e-13
-4.61638e-12
-1.54785e-11
1.65104e-11
2.90917e-13
9.26362e-12
-6.65787e-12
-1.83223e-11
2.94762e-13
-1.42906e-11
1.4895e-13
-2.37826e-11
-5.37117e-11
-1.17035e-12
1.68466e-13
3.16585e-11
-1.8425e-13
1.48715e-11
3.14721e-13
1.31689e-11
-1.7436e-11
-1.92825e-11
3.36378e-11
-2.18436e-11
7.04573e-11
-3.36866e-11
-1.58728e-12
-2.92524e-13
4.08343e-11
3.01772e-13
-3.01308e-13
-2.53494e-13
4.55719e-11
2.43101e-11
8.16792e-13
1.69877e-11
-1.42497e-13
-4.61591e-11
-1.53725e-12
-3.13957e-11
7.77308e-14
2.6919e-13
-2.00145e-13
2.41904e-13
3.19696e-11
-1.589e-11
-1.67815e-11
3.72552e-11
3.33899e-12
-6.75478e-12
-2.55025e-11
2.20592e-13
-3.64983e-11
-6.49047e-11
5.0396e-11
1.62873e-11
1.64334e-11
2.88377e-13
-3.24388e-11
-1.47972e-11
-2.46468e-11
1.22351e-11
-7.14413e-12
-2.55581e-11
-4.42576e-11
2.56344e-11
-5.95753e-13
-2.60392e-11
-3.58055e-11
-5.67076e-12
8.24916e-12
6.94786e-12
-2.90952e-13
-3.83262e-11
-1.45868e-11
1.48958e-13
-1.48902e-13
2.69343e-11
-2.82884e-11
7.26523e-13
2.60189e-11
-1.90795e-11
1.27838e-11
-4.41957e-13
5.80482e-12
-1.78725e-11
-1.25678e-13
1.40725e-11
-2.29743e-11
-2.98077e-13
2.50863e-11
2.09367e-13
1.30539e-11
-3.45481e-11
1.88994e-12
-2.86413e-11
2.23237e-13
1.19158e-12
3.36234e-13
-1.39957e-12
2.55572e-11
1.82152e-12
-2.88313e-13
2.50571e-11
-2.11366e-12
1.75087e-11
2.55149e-11
7.93332e-13
-2.32439e-12
-3.24989e-11
2.80599e-11
5.54033e-14
-2.11036e-13
5.89732e-13
7.3917e-11
-3.76352e-13
-2.07994e-12
8.09648e-15
6.33334e-11
-4.0507e-11
-2.25012e-11
-9.94976e-13
-1.13235e-12
1.16822e-11
-3.82695e-13
8.42864e-13
-3.14042e-11
-8.8279e-13
6.43897e-11
-2.35811e-11
3.50996e-12
1.10613e-12
3.52467e-13
9.79609e-11
6.24349e-12
-3.49283e-11
-5.26047e-11
-1.10921e-11
9.5613e-12
1.41638e-11
-1.25928e-13
7.14829e-12
2.97563e-13
-1.19305e-11
1.59788e-12
6.21468e-12
1.06965e-11
-8.71871e-13
3.30028e-11
-8.92898e-13
1.93623e-11
0
5.95208e-13
6.92421e-12
1.94676e-11
4.33547e-13
-1.44507e-13
-3.42774e-11
2.19481e-11
1.04181e-12
-4.46793e-13
5.58469e-13
7.79856e-13
-2.68727e-12
-8.49522e-14
-4.15372e-11
-1.33822e-14
-6.83938e-12
2.21023e-11
-1.93663e-12
-1.83384e-13
-1.55214e-11
0
-2.5319e-11
1.20288e-13
5.74498e-11
6.889e-11
-1.98197e-12
7.20131e-13
-3.02003e-13
-2.42542e-11
-9.16227e-14
4.79754e-13
9.88008e-12
1.40836e-13
-1.85219e-11
1.52325e-11
-3.68763e-11
9.79266e-11
-4.38625e-13
2.38471e-11
1.04428e-13
3.44863e-11
5.07893e-13
1.49839e-13
1.8255e-11
-2.16425e-11
2.19863e-12
8.46244e-13
-2.44457e-13
6.45166e-13
-1.92797e-13
5.88814e-13
-6.65028e-11
7.29368e-13
-2.25475e-11
2.21428e-11
3.69579e-15
-1.26914e-11
3.1543e-11
-4.10309e-12
7.34117e-13
2.91805e-13
6.63903e-13
-4.37241e-13
-7.26474e-13
1.4891e-13
-1.48773e-13
3.35771e-11
2.54144e-11
-3.06319e-11
7.80283e-12
-6.82638e-12
-2.94576e-13
-1.488e-13
2.1595e-11
4.46681e-13
-5.80347e-12
0
-2.90671e-13
-2.89151e-13
-6.79458e-12
2.46983e-12
-1.0312e-12
2.29194e-11
6.10622e-12
4.46422e-13
6.09361e-13
1.51294e-11
3.88478e-11
-2.6393e-13
1.34929e-11
9.13314e-13
1.37918e-12
1.3872e-11
-1.01295e-11
2.15971e-11
2.97772e-13
-7.54379e-11
-5.19954e-11
-8.12197e-11
2.82778e-13
-3.84303e-12
-6.91434e-11
4.28777e-11
-1.57645e-13
1.67022e-11
2.24993e-13
-7.72848e-11
-9.27373e-11
1.64649e-11
-2.14018e-11
2.97484e-11
-2.94938e-12
5.07261e-11
-6.78296e-14
-1.59514e-11
6.24327e-12
7.4145e-11
9.20028e-13
-1.18743e-14
-1.1751e-13
-3.63634e-11
-3.06912e-13
-9.98363e-13
2.27056e-14
4.37472e-14
-9.54929e-13
2.69805e-13
-3.16944e-11
-2.07163e-13
-7.69707e-14
-8.55776e-13
-3.80146e-11
-1.31549e-11
-2.36611e-11
-5.87161e-13
-3.96804e-11
-2.4596e-11
3.31724e-11
-2.24717e-11
-1.4891e-13
-4.46322e-13
6.18589e-12
7.26322e-12
6.50459e-12
0
6.68236e-12
-4.41876e-13
-1.04161e-12
-2.21912e-11
0
0
-2.94827e-13
2.91028e-13
5.35877e-12
-5.35845e-12
1.4547e-13
7.07428e-12
5.50707e-12
1.48946e-13
-5.37532e-15
5.67092e-13
1.66152e-11
-3.81127e-11
-1.13e-11
-8.92521e-13
-8.17122e-14
1.06847e-12
3.99697e-11
-8.21086e-14
-1.78168e-11
3.55611e-13
1.67122e-12
-2.72938e-11
1.9561e-13
-2.66839e-11
-2.59258e-13
-2.23163e-11
-3.95253e-11
-1.99054e-11
-2.82851e-13
-3.56349e-13
-1.86027e-10
3.51613e-13
-4.82967e-14
1.76298e-11
-4.07025e-13
-7.60409e-11
-2.47927e-13
1.59247e-11
2.51041e-13
-2.51051e-13
-1.32505e-13
7.20731e-14
5.09105e-15
-1.99291e-11
1.9573e-12
-6.83467e-13
-3.41524e-14
3.97177e-12
2.37242e-13
8.00246e-13
3.94543e-12
-6.08344e-11
-2.40633e-13
1.97966e-11
-2.02886e-13
2.84429e-11
-7.98583e-13
-2.90418e-11
1.56839e-11
1.1439e-11
1.31665e-12
6.32151e-11
-2.32887e-11
1.48925e-13
1.48788e-12
3.83111e-12
5.81811e-13
-1.59284e-11
-2.37479e-11
7.27251e-13
5.59948e-12
-3.57168e-12
-2.30874e-11
-1.95102e-11
2.97705e-13
-2.95036e-13
0
0
-5.08323e-12
2.91569e-13
1.47512e-13
-2.53108e-11
2.97947e-13
-3.1004e-12
2.76479e-14
1.62698e-13
4.1011e-13
-3.80113e-13
-1.16005e-12
-2.33813e-12
-5.49265e-13
1.28181e-11
-1.66955e-13
1.97555e-11
8.92472e-13
-9.15485e-11
-2.51718e-11
2.27031e-11
1.93746e-12
4.07105e-12
-3.28172e-11
-5.73855e-11
-4.73315e-13
2.08513e-12
2.24096e-13
-1.14633e-12
1.52759e-11
-3.3882e-14
-5.10701e-13
-4.34988e-11
-4.10308e-13
5.28844e-13
4.57855e-13
6.38801e-13
4.31984e-11
-7.22529e-11
-8.90144e-14
2.10599e-13
4.61033e-13
4.50736e-13
-3.75836e-14
4.43937e-11
-4.37023e-13
6.65868e-13
4.98212e-13
-9.15627e-13
-4.4683e-11
5.58865e-14
-1.58052e-13
2.24552e-13
-1.20691e-12
4.23235e-12
-4.27453e-12
1.31415e-11
-1.76188e-12
1.38047e-11
4.8279e-13
-2.36742e-14
-5.9584e-13
3.30425e-11
1.17989e-12
-1.98248e-11
-6.09902e-12
0
5.53883e-12
1.90248e-11
9.08099e-12
-2.97966e-13
1.74275e-11
1.48879e-13
2.65539e-12
-1.45701e-13
8.26889e-12
-5.94768e-12
-1.45683e-13
5.60537e-12
-5.65846e-12
4.32059e-12
-8.56136e-14
2.31381e-13
-3.7233e-11
4.99199e-11
2.54293e-13
2.55019e-13
2.13357e-13
-4.06783e-11
-1.68722e-13
4.83242e-12
7.6946e-12
2.97807e-13
5.76056e-11
-3.60825e-11
-4.64727e-11
4.90711e-11
-3.12468e-12
6.38617e-11
3.32056e-11
4.37244e-13
-4.83538e-13
3.08722e-11
-2.62671e-12
5.13439e-13
-2.93725e-13
-2.57368e-11
-2.9723e-11
-2.70322e-12
-3.27519e-11
2.61876e-11
8.27301e-14
-3.45517e-13
6.41764e-11
-7.50212e-13
-6.02007e-13
-1.40848e-13
-1.88638e-13
1.27287e-13
1.14723e-15
-2.61272e-11
4.66452e-13
-2.94556e-13
3.18371e-13
8.78653e-13
8.05991e-13
2.06972e-13
3.37337e-13
3.93893e-12
-1.4151e-11
1.65104e-11
-2.16328e-11
1.08667e-11
5.12497e-13
1.32163e-13
5.66954e-14
-1.48979e-13
-1.84595e-11
-2.02035e-11
6.5542e-12
-7.25208e-13
0
-5.5345e-12
1.47472e-13
1.48896e-12
-1.49003e-13
2.83006e-11
5.20989e-12
-6.48645e-12
-2.16681e-11
-1.53369e-11
-1.37454e-11
2.02135e-11
-3.7001e-11
4.31739e-12
0
-3.74972e-14
-7.29237e-13
-1.04037e-12
1.15583e-11
1.25168e-11
5.92642e-11
9.34225e-12
3.09374e-11
1.4196e-11
7.11916e-13
-2.81874e-11
8.9366e-13
-8.85359e-14
-9.56922e-13
2.87721e-12
-6.22299e-11
-3.11437e-12
-4.67391e-11
-3.01964e-13
6.50433e-14
-5.12738e-13
9.05111e-14
-1.27422e-11
4.7111e-12
-9.07674e-13
-1.9171e-11
2.73739e-13
-3.68269e-13
-4.55523e-11
5.14288e-12
3.85448e-13
-3.33585e-13
-2.13491e-12
4.17218e-11
-3.22681e-13
7.78809e-13
3.62269e-14
-7.54618e-13
1.44019e-13
-3.13364e-11
3.05489e-13
8.02197e-13
9.88774e-14
-8.48561e-12
-2.19639e-11
1.83127e-11
-3.76685e-11
1.52894e-11
2.12044e-11
1.08275e-11
-1.54646e-11
-9.76394e-12
3.79055e-11
1.00856e-11
2.7031e-11
1.48969e-13
6.39996e-12
-6.48362e-12
-3.66313e-11
-1.44661e-13
1.30195e-11
-6.10523e-12
-1.19363e-11
0
2.24988e-11
1.48964e-13
1.48847e-13
-2.32834e-11
2.84835e-11
1.44573e-13
9.25295e-12
-5.37747e-12
1.97487e-11
5.35936e-12
4.46931e-13
1.34006e-13
-1.9236e-14
-2.19243e-11
5.12922e-11
2.91445e-13
2.02676e-11
6.54181e-13
-2.99132e-11
3.31704e-11
1.74308e-11
-1.07343e-13
5.95523e-13
-3.07879e-11
-3.98442e-11
1.86745e-12
-7.00919e-11
3.30143e-11
1.03751e-10
-3.17177e-11
-1.61706e-13
1.10687e-13
-3.60127e-13
-2.31951e-12
7.72244e-14
-1.74054e-11
-1.4739e-13
-4.58832e-13
6.19282e-11
-3.10753e-11
9.11942e-14
-2.02438e-11
8.54293e-13
9.61412e-11
3.14552e-11
-2.50833e-11
2.8957e-14
-2.13545e-13
2.18891e-12
-1.92599e-13
-1.54336e-11
2.07389e-11
3.93815e-13
1.67261e-12
-8.18755e-13
2.54575e-11
-1.14005e-13
8.1649e-13
-4.27417e-11
-2.81284e-11
1.05487e-11
3.66976e-13
-2.3342e-11
8.98649e-13
-7.57841e-13
1.57788e-11
0
-8.92979e-13
1.57636e-11
7.69992e-12
3.57038e-11
-2.74644e-12
1.22036e-11
3.02022e-11
6.40112e-12
-1.49011e-13
-2.68239e-12
-6.55157e-12
7.07543e-12
1.45375e-13
1.44649e-13
-3.06672e-11
2.90812e-13
8.10869e-12
1.63807e-12
2.56324e-11
1.62249e-11
-2.78881e-13
-1.35702e-11
-3.36864e-13
-6.33555e-12
-1.09616e-11
2.41001e-12
-2.21007e-12
3.8168e-11
2.63002e-13
3.72526e-11
2.97767e-13
-1.81883e-12
-1.99312e-12
4.72469e-12
-7.16834e-11
2.13362e-11
-5.04001e-12
-7.8835e-11
-2.49622e-11
3.63738e-13
1.12664e-13
0
3.98269e-11
1.75303e-13
-1.79556e-11
7.28252e-13
5.89879e-13
-2.31729e-13
1.47459e-11
-2.82535e-13
-7.85911e-13
5.77452e-12
2.50004e-13
-1.88175e-13
2.19266e-13
5.53689e-14
6.93719e-11
-1.14659e-12
5.62903e-12
3.3088e-13
-7.12513e-12
1.52431e-12
1.75638e-12
3.0139e-11
-6.81999e-14
5.06231e-11
-5.51329e-12
1.35198e-11
1.89016e-11
-3.6995e-11
-2.58969e-11
-1.00812e-11
-1.8942e-13
-2.11439e-11
0
-1.68227e-11
-6.18986e-12
-7.84903e-12
2.54548e-11
1.15703e-11
1.88953e-12
-1.47378e-13
-2.82925e-11
-3.04095e-11
0
-1.16246e-11
6.49522e-12
7.2858e-13
-5.51249e-12
5.51284e-12
-1.45758e-13
6.49679e-12
0
1.83432e-11
1.70598e-11
-6.465e-12
-1.80426e-13
1.58669e-13
-5.94571e-13
5.41928e-13
-8.86462e-13
-2.60215e-11
-4.28919e-13
1.84725e-11
-1.58008e-13
4.57435e-11
-2.16379e-12
-2.96195e-12
-7.1117e-14
3.99665e-11
1.11364e-12
1.68285e-11
2.11389e-12
-1.09541e-13
6.53923e-12
-4.57735e-11
-1.73889e-11
-4.45949e-13
2.06445e-11
-1.67349e-13
6.70997e-13
-2.11706e-13
4.46858e-11
-6.81141e-13
-4.67894e-11
-1.26283e-14
6.51013e-11
-4.60048e-11
-3.93922e-11
2.43692e-13
2.3892e-13
5.52848e-13
-1.29931e-13
2.84386e-12
2.4613e-11
-4.9317e-11
2.03612e-12
6.35898e-13
5.32544e-11
9.77723e-14
-3.77165e-12
-3.12762e-11
-1.19822e-11
-4.79255e-11
1.42944e-11
-1.38451e-12
-3.66332e-11
-2.52335e-13
-1.91162e-12
-5.96477e-13
9.08915e-12
-9.59381e-12
1.1656e-12
7.25242e-13
-8.55779e-12
2.91388e-13
7.08439e-12
1.11777e-11
-3.40116e-11
2.98535e-13
1.94048e-12
0
6.31197e-12
-6.73276e-12
-2.92744e-13
-4.40469e-13
-7.41076e-12
-7.01544e-12
2.83589e-12
1.41015e-13
4.32548e-11
-1.00812e-12
3.80998e-11
1.31245e-11
-1.12482e-12
3.22412e-13
-1.56382e-11
-4.52229e-12
2.31093e-11
-1.42724e-11
-4.41705e-11
-7.60104e-14
-4.99289e-11
-6.09808e-12
4.37756e-12
1.57531e-13
1.14766e-12
-2.08099e-11
2.02257e-11
-1.24432e-12
4.64216e-11
7.57442e-11
2.28421e-11
-3.78407e-14
1.40816e-11
-9.63274e-11
-6.26861e-13
-3.16175e-11
8.01649e-14
6.88448e-13
5.08592e-11
-1.04736e-10
3.15573e-11
2.33213e-13
5.47154e-13
2.77894e-13
1.29654e-10
4.16792e-13
-1.97294e-13
-1.69632e-11
8.6446e-14
1.43488e-12
4.38521e-11
1.89628e-14
1.18658e-11
4.37572e-11
-3.54326e-11
-3.43601e-11
0
-1.21444e-11
-1.0918e-12
1.11165e-12
-1.09203e-11
-6.72528e-14
2.88031e-11
-7.16289e-12
1.03725e-12
3.61073e-11
-7.75644e-12
-1.46347e-13
-8.07233e-12
4.44505e-13
7.61221e-12
0
0
-6.86847e-12
-2.99142e-11
-1.4822e-13
7.69971e-12
0
2.19389e-11
5.95334e-13
6.27082e-12
-1.49211e-13
-1.76173e-13
5.68657e-13
-2.21882e-11
-2.59875e-13
-4.83498e-12
-1.08985e-12
4.43642e-11
1.29136e-11
4.75583e-12
1.6182e-11
-1.62539e-11
1.19492e-12
-1.39862e-13
2.41412e-11
-2.18562e-11
3.26599e-11
1.30153e-11
-1.71228e-11
-4.53552e-12
1.62165e-13
1.35352e-14
5.10127e-13
-2.08992e-12
3.53125e-11
-1.60756e-11
-1.20397e-11
3.23785e-11
-8.64647e-11
-3.58849e-11
1.78069e-11
-2.82111e-13
-3.47545e-11
1.04722e-11
1.54308e-11
1.19387e-13
2.77811e-11
1.67386e-12
-7.35454e-11
2.53692e-11
-1.85304e-11
-2.12239e-11
2.80916e-13
2.7138e-12
-4.10996e-11
-1.94751e-11
6.39763e-13
5.75312e-14
0
9.64985e-12
1.61807e-11
-1.53538e-11
2.01739e-13
-1.47732e-11
-1.10693e-13
7.89132e-13
2.13338e-11
0
-2.29138e-11
0
1.48054e-13
-5.03378e-12
0
2.97592e-13
1.04504e-12
1.94002e-11
1.57819e-11
3.43922e-11
4.96347e-11
7.41714e-12
5.33817e-12
1.03805e-11
6.67562e-12
-2.15473e-11
-5.95512e-12
-1.54822e-11
1.61305e-11
5.36957e-11
2.02935e-11
1.78127e-13
-1.06148e-11
-3.50662e-13
-1.47249e-11
-3.7553e-11
1.14731e-13
1.61009e-11
-9.66528e-14
7.31398e-14
-4.79408e-11
-2.07245e-11
2.43224e-11
-5.4452e-11
1.18614e-11
2.08417e-11
2.97139e-13
1.54486e-11
1.83923e-13
-2.96371e-13
4.68428e-11
4.95878e-11
-1.11831e-11
-6.07815e-11
-5.53006e-11
8.68893e-11
-5.74103e-13
4.15152e-12
-9.81244e-14
3.26404e-11
-9.79177e-13
-3.79834e-11
5.49297e-12
3.98097e-11
3.22694e-11
6.18784e-11
3.19739e-11
5.77859e-13
6.48853e-14
-3.29843e-11
3.0637e-13
-3.79485e-11
-6.18104e-12
-2.36671e-13
-5.51043e-11
-7.96143e-11
-3.19366e-11
-2.0335e-11
1.53729e-12
5.17333e-13
-4.68969e-11
7.21657e-11
-6.07098e-13
-5.15639e-11
5.4428e-11
7.12054e-13
-4.13178e-11
1.36774e-12
-4.00551e-13
-4.28562e-11
6.34947e-11
-4.2755e-11
6.57952e-11
7.17912e-11
9.04836e-11
-9.6167e-13
4.22538e-11
-1.96848e-13
-1.63712e-12
9.61175e-12
-3.34932e-11
-2.71142e-11
-2.82175e-12
-7.63472e-11
4.07515e-11
2.43735e-13
-3.00538e-13
-1.68896e-12
-1.48846e-13
2.97665e-12
-1.33709e-12
5.93309e-12
3.12845e-11
-1.03792e-12
3.27796e-11
5.34882e-12
-2.08395e-12
0
4.45413e-13
2.06243e-11
-2.02992e-11
0
1.25849e-11
4.12884e-11
-2.26466e-11
-3.52809e-11
-4.43668e-11
-3.84507e-11
-2.72622e-13
1.14206e-13
2.33751e-11
-5.95678e-12
5.21324e-12
7.19435e-12
7.06878e-12
-2.86908e-11
-1.64085e-11
-1.91853e-11
-6.56493e-13
-2.03485e-11
1.99256e-11
4.06112e-13
-4.77714e-11
-1.52832e-11
2.77698e-11
-1.01911e-14
2.80468e-11
5.5566e-13
1.86899e-13
-1.62349e-13
3.72405e-11
-1.54799e-13
4.65097e-11
-5.26076e-13
4.77491e-11
-4.18303e-13
6.20025e-13
1.88654e-13
-2.03072e-11
2.63553e-13
-3.8243e-11
2.78105e-11
9.6524e-12
-3.51374e-12
-9.06471e-11
-1.29457e-12
1.87949e-11
1.88576e-11
7.35063e-14
2.14208e-11
1.17862e-13
-2.55984e-11
7.66995e-12
5.42076e-12
4.23514e-11
8.82313e-13
-2.75955e-13
1.52897e-14
4.0015e-11
-7.08169e-12
-9.8204e-14
-1.21743e-11
-3.16332e-11
9.76508e-13
-8.71612e-13
2.99467e-13
-2.44844e-11
2.78543e-13
-1.59236e-13
-2.8842e-11
3.49208e-13
3.37098e-11
-3.43943e-11
-1.47092e-12
1.39839e-12
1.11035e-13
-3.57649e-13
2.69218e-13
-4.01224e-11
5.55379e-12
-4.18362e-14
6.50322e-12
3.4238e-11
-6.75064e-12
1.99131e-12
-8.56623e-12
-3.2504e-11
1.46603e-12
-2.01885e-11
0
-3.85345e-12
-1.59843e-11
2.45758e-11
2.01246e-11
2.95997e-13
2.13338e-11
2.22541e-12
1.18771e-12
-1.18562e-12
-4.44367e-13
0
2.66282e-12
0
1.47916e-13
-1.47938e-13
-1.48023e-13
-5.92489e-13
-5.92785e-13
3.8287e-12
-4.6892e-13
1.3001e-13
2.75979e-12
-3.10159e-14
2.12818e-11
8.13333e-14
-1.58574e-11
-6.90278e-13
-5.91183e-13
-1.6912e-11
1.69601e-11
-8.24839e-14
-2.65394e-12
-2.31446e-11
-1.03683e-13
9.80391e-14
-4.27905e-14
3.66925e-13
-4.41352e-14
-5.03304e-12
-2.29978e-11
4.24935e-15
-4.47115e-15
6.02258e-13
-2.13631e-11
-1.55384e-13
1.54127e-11
-2.12045e-11
-1.29971e-13
1.70465e-11
-1.62941e-11
-2.01953e-11
2.92734e-12
2.3233e-11
3.55445e-13
-1.49305e-11
1.22851e-13
-3.553e-13
1.20187e-13
7.71371e-14
2.30495e-11
-2.53857e-11
-8.53407e-14
-1.17123e-12
5.43187e-14
1.54424e-11
5.76944e-13
2.15594e-11
9.624e-14
1.66728e-11
-4.75e-13
2.00842e-11
-6.63063e-15
-4.74342e-14
-2.02997e-13
-9.03711e-12
-3.6179e-13
-8.83272e-14
7.33331e-14
-2.23376e-13
-6.63026e-14
2.5773e-11
1.7958e-11
6.09281e-13
-6.07288e-13
1.02588e-11
2.5543e-13
2.65224e-13
5.04056e-13
-1.63002e-11
9.75426e-15
-4.10292e-13
-3.60622e-16
-7.44514e-14
1.05121e-13
2.45611e-11
-4.5025e-14
-2.12049e-13
-3.13801e-13
-1.48188e-13
-1.48109e-13
-7.40029e-13
-1.8047e-11
1.47915e-13
1.47906e-13
-2.4851e-11
-4.43998e-13
0
-2.96396e-13
0
1.48005e-13
-1.42029e-11
1.5826e-11
-2.95791e-13
-1.47896e-13
5.02894e-12
1.70145e-11
5.92028e-13
1.48051e-13
-1.63357e-11
-2.86071e-14
-1.35989e-11
4.90846e-15
-2.03783e-13
-2.15549e-13
1.10949e-13
2.61218e-12
-1.47929e-11
3.14069e-13
-1.5907e-11
-2.8184e-14
3.76758e-13
-3.62126e-11
-1.37658e-11
-3.3261e-12
-8.54768e-12
-2.07576e-11
-5.88236e-14
-1.05533e-14
1.70758e-11
-1.60436e-11
-1.71302e-11
-8.45204e-14
2.09229e-11
2.87555e-11
-4.48071e-13
1.34715e-11
1.57572e-11
1.27934e-12
1.57304e-11
-1.20917e-13
-8.78586e-15
2.03417e-11
1.43277e-11
3.74736e-12
3.29827e-12
2.17792e-11
6.25476e-14
-5.16008e-13
-6.66943e-13
-5.28063e-12
1.43733e-12
1.89166e-13
-2.12307e-11
-4.96538e-11
-2.12199e-11
1.13625e-12
-1.6777e-11
-1.00179e-12
-1.90803e-13
1.18562e-13
-4.4945e-14
-9.40372e-14
2.86887e-13
-5.07791e-13
-5.0041e-13
-1.16166e-12
1.75009e-13
1.71304e-11
2.01556e-13
3.14857e-13
-3.84903e-12
-9.52382e-15
2.26568e-11
2.22715e-11
2.20956e-11
-1.88277e-13
1.67337e-11
6.55775e-14
5.22382e-14
1.20429e-13
-7.527e-13
9.28943e-14
-6.46698e-13
-1.82141e-11
-3.82135e-13
-2.06761e-11
2.55935e-11
-1.68974e-11
-1.48043e-13
2.08675e-11
1.90841e-11
-2.95797e-13
-2.27748e-11
-1.8486e-11
-4.437e-13
-2.02679e-11
2.56044e-11
0
-3.81763e-11
-2.18959e-11
7.3958e-13
0
5.91557e-13
-1.893e-11
0
5.91681e-13
1.64223e-11
2.95944e-13
-3.32186e-11
-1.80584e-11
1.99395e-13
-1.49899e-11
-1.4829e-11
-1.52173e-11
-2.0228e-13
2.1482e-11
1.83144e-13
3.89282e-13
2.06207e-11
2.21813e-11
-5.91597e-13
-7.28596e-13
-2.25409e-11
-5.12827e-12
2.30314e-14
2.48885e-13
-1.64849e-11
5.40958e-13
-3.91345e-12
1.80952e-11
-3.54495e-13
1.47752e-11
-5.46996e-12
1.55127e-11
-2.56277e-13
-3.88626e-11
1.52908e-11
3.30999e-12
1.08706e-12
2.03289e-11
-5.15926e-14
-1.81994e-14
2.24765e-11
2.43327e-11
-2.12533e-14
-1.37625e-13
-6.96752e-15
1.48079e-11
2.06557e-11
1.91673e-13
1.75808e-11
2.66398e-13
2.02772e-11
-1.15659e-13
-4.25174e-13
1.78226e-11
4.91899e-12
-3.33693e-12
-3.41585e-13
-2.04164e-11
-1.71481e-13
-3.58482e-14
-2.16783e-11
-1.35434e-12
5.17393e-14
-8.02125e-13
-3.83028e-13
-1.54335e-11
2.39325e-13
-1.65627e-13
-1.71365e-11
1.18863e-13
4.85383e-13
7.84146e-14
2.28796e-13
2.2006e-13
-3.70275e-11
-2.48501e-15
-1.78021e-13
2.46167e-13
-2.05921e-13
-9.07357e-14
2.13762e-11
1.11905e-12
2.9318e-12
4.94726e-13
6.08907e-13
1.97012e-14
0
4.43819e-13
1.4791e-13
2.95779e-13
0
0
2.80996e-12
0
1.6422e-11
2.95943e-13
-9.83702e-12
-6.65729e-13
7.39659e-14
-3.69593e-13
1.64145e-11
-5.02791e-12
-5.17485e-13
-7.39032e-14
-2.2181e-13
7.37721e-14
-9.53921e-12
-1.40432e-12
7.39413e-14
-1.63406e-11
-8.87269e-13
-2.05557e-11
-1.70808e-11
-7.3885e-14
7.42186e-14
2.22501e-13
2.21045e-13
5.16808e-13
-2.95708e-13
3.34868e-16
-1.77469e-11
5.02844e-12
5.91776e-13
-1.47773e-13