/*--------------------------------*- C++ -*----------------------------------*\
  =========                 |
  \\      /  F ield         | OpenFOAM: The Open Source CFD Toolbox
   \\    /   O peration     | Website:  https://openfoam.org
    \\  /    A nd           | Version:  10
     \\/     M anipulation  |
\*---------------------------------------------------------------------------*/
FoamFile
{
    format      ascii;
    class       volScalarField;
    location    "2.8";
    object      gradTx;
}
// * * * * * * * * * * * * * * * * * * * * * * * * * * * * * * * * * * * * * //

dimensions      [0 -1 0 1 0 0 0];

internalField   nonuniform List<scalar> 
3000
(
-494.462
-5.5068
-0.030834
-0.000115412
-3.24832e-07
-7.34079e-10
1.57652e-10
-4.84057e-11
0
1.52767e-10
-494.462
-5.5068
-0.030834
-0.000115412
-3.24837e-07
-7.62057e-10
2.84217e-11
-1.77636e-11
-5.32907e-12
2.66454e-11
-494.462
-5.5068
-0.030834
-0.000115412
-3.24855e-07
-7.69607e-10
0
1.92735e-10
3.90799e-11
-1.15907e-10
-494.462
-5.5068
-0.030834
-0.000115412
-3.24661e-07
-8.33111e-10
4.44089e-13
-4.44089e-13
-1.62093e-10
1.02141e-11
-494.462
-5.5068
-0.030834
-0.000115412
-3.24842e-07
-7.3852e-10
1.94067e-10
1.63869e-10
-1.84741e-10
-1.57208e-10
-494.462
-5.5068
-0.030834
-0.000115412
-3.24806e-07
-7.67386e-10
-3.06422e-11
1.92291e-10
7.01661e-11
-1.83853e-10
-494.462
-5.5068
-0.030834
-0.000115412
-3.24642e-07
-6.14619e-10
2.22045e-12
0
-1.85185e-10
1.42109e-11
-494.462
-5.5068
-0.030834
-0.000115412
-3.24848e-07
-8.00249e-10
1.56763e-10
2.30926e-11
-1.79856e-10
-7.54952e-12
-494.462
-5.5068
-0.030834
-0.000115412
-3.24688e-07
-8.3622e-10
-1.54987e-10
1.52767e-10
-3.68594e-11
-1.54099e-10
-494.462
-5.5068
-0.030834
-0.000115412
-3.24736e-07
-6.20393e-10
-6.21725e-12
-1.5854e-10
-1.02141e-10
1.60316e-10
-494.462
-5.5068
-0.030834
-0.000115412
-3.24882e-07
-7.69163e-10
1.86517e-10
4.44089e-12
-1.63425e-10
3.55271e-12
-494.462
-5.5068
-0.030834
-0.000115412
-3.24881e-07
-7.50067e-10
6.83897e-11
-2.26485e-11
1.64313e-11
-1.02141e-11
-494.462
-5.5068
-0.030834
-0.000115412
-3.24822e-07
-7.62501e-10
9.32587e-12
1.0969e-10
7.99361e-12
-6.66134e-11
-494.462
-5.5068
-0.030834
-0.000115412
-3.24808e-07
-8.06022e-10
-2.30926e-11
0
-3.95239e-11
-5.15143e-11
-494.462
-5.5068
-0.030834
-0.000115412
-3.24901e-07
-7.08322e-10
1.04805e-10
4.44089e-13
-8.39329e-11
-1.06581e-11
-494.462
-5.5068
-0.030834
-0.000115412
-3.24861e-07
-7.62501e-10
9.32587e-12
1.0969e-10
7.99361e-12
-2.79776e-11
-494.462
-5.5068
-0.030834
-0.000115412
-3.24914e-07
-7.40741e-10
1.04805e-10
0
-8.39329e-11
-5.68434e-11
-494.462
-5.5068
-0.030834
-0.000115412
-3.24824e-07
-8.22897e-10
1.55431e-11
0
-7.10543e-11
7.10543e-11
-494.462
-5.5068
-0.030834
-0.000115412
-3.24805e-07
-7.69163e-10
-2.04281e-11
-6.9722e-11
-8.92619e-11
5.15143e-11
-494.462
-5.5068
-0.030834
-0.000115412
-3.24758e-07
-7.74936e-10
1.1724e-10
0
-1.66533e-10
2.70894e-11
-494.462
-5.5068
-0.030834
-0.000115412
-3.24858e-07
-7.69607e-10
0
1.92735e-10
3.90799e-11
-1.15907e-10
-494.462
-5.5068
-0.030834
-0.000115412
-3.24861e-07
-6.88338e-10
2.44249e-11
3.55271e-11
-7.54952e-12
1.33227e-12
-494.462
-5.5068
-0.030834
-0.000115412
-3.24762e-07
-8.21121e-10
-3.55271e-12
-2.04281e-11
-1.06137e-10
1.05693e-10
-494.462
-5.5068
-0.030834
-0.000115412
-3.24901e-07
-7.49623e-10
8.83738e-11
-4.30767e-11
-4.57412e-11
1.06581e-11
-494.462
-5.5068
-0.030834
-0.000115412
-3.2487e-07
-7.62057e-10
2.04281e-11
0
-2.04281e-11
9.63674e-11
-494.462
-5.5068
-0.030834
-0.000115412
-3.24857e-07
-8.47322e-10
1.06137e-10
-2.04281e-11
-2.62013e-11
1.11466e-10
-494.462
-5.5068
-0.030834
-0.000115412
-3.2487e-07
-7.53619e-10
4.30767e-11
4.44089e-13
-2.30926e-11
2.30926e-11
-494.462
-5.5068
-0.030834
-0.000115412
-3.24817e-07
-8.3622e-10
-2.17604e-11
0
-8.88178e-11
6.79456e-11
-494.462
-5.5068
-0.030834
-0.000115412
-3.24916e-07
-7.41629e-10
2.04281e-11
-2.04281e-11
5.9508e-11
4.30767e-11
-494.462
-5.5068
-0.030834
-0.000115412
-3.24834e-07
-7.66942e-10
8.43769e-12
3.77476e-11
2.84217e-11
-2.84217e-11
-494.462
-5.5068
-0.030834
-0.000115412
-3.24823e-07
-7.69607e-10
1.62093e-10
0
-1.62093e-10
1.02141e-11
-494.462
-5.5068
-0.030834
-0.000115412
-3.24851e-07
-7.17648e-10
1.90958e-11
0
-3.86358e-11
7.54952e-12
-494.462
-5.5068
-0.030834
-0.000115412
-3.24901e-07
-7.54063e-10
3.37508e-11
5.9508e-11
1.02141e-11
1.77636e-12
-494.462
-5.5068
-0.030834
-0.000115412
-3.24873e-07
-7.3852e-10
3.06422e-11
0
-5.06262e-11
-8.88178e-12
-494.462
-5.5068
-0.030834
-0.000115412
-3.24869e-07
-8.25118e-10
-7.01661e-11
6.30607e-11
9.59233e-11
-9.59233e-11
-494.462
-5.5068
-0.030834
-0.000115412
-3.24805e-07
-7.49623e-10
-2.04281e-11
-2.30926e-11
-8.92619e-11
-3.06422e-11
-494.462
-5.5068
-0.030834
-0.000115412
-3.24806e-07
-8.25118e-10
-8.70415e-11
6.30607e-11
9.59233e-11
-9.63674e-11
-494.462
-5.5068
-0.030834
-0.000115412
-3.24958e-07
-6.94111e-10
7.90479e-11
-4.44089e-13
4.44089e-13
1.55431e-11
-494.462
-5.5068
-0.030834
-0.000115412
-3.24876e-07
-8.03801e-10
2.39808e-11
-2.26485e-11
-8.43769e-11
4.21885e-11
-494.462
-5.5068
-0.030834
-0.000115412
-3.24828e-07
-6.01741e-10
-2.08722e-11
-1.62093e-10
2.53131e-11
-2.53131e-11
-494.462
-5.5068
-0.030834
-0.000115412
-3.24894e-07
-7.33635e-10
1.93623e-10
1.57208e-10
-1.84741e-10
-1.65645e-10
-494.462
-5.5068
-0.030834
-0.000115412
-3.24949e-07
-6.88338e-10
8.92619e-11
-1.9984e-11
-6.79456e-11
2.79776e-11
-494.462
-5.5068
-0.030834
-0.000115412
-3.24776e-07
-7.41629e-10
-8.92619e-11
-2.04281e-11
-2.04281e-11
2.04281e-11
-494.462
-5.5068
-0.030834
-0.000115412
-3.24902e-07
-6.87894e-10
3.41949e-11
-1.06137e-10
2.88658e-11
8.92619e-11
-494.462
-5.5068
-0.030834
-0.000115412
-3.24941e-07
-7.62057e-10
7.99361e-11
0
-7.99361e-11
7.99361e-11
-494.462
-5.5068
-0.030834
-0.000115412
-3.24916e-07
-7.41629e-10
9.72555e-11
-2.08722e-11
-1.68754e-11
4.30767e-11
-494.462
-5.5068
-0.030834
-0.000115412
-3.24885e-07
-7.62057e-10
7.99361e-11
0
0
8.03801e-11
-494.462
-5.5068
-0.030834
-0.000115412
-3.24824e-07
-6.82121e-10
-2.66454e-11
0
-1.73195e-11
-6.30607e-11
-494.462
-5.5068
-0.030834
-0.000115412
-3.24901e-07
-7.41629e-10
1.00364e-10
-2.04281e-11
-2.04281e-11
1.0969e-10
-494.462
-5.5068
-0.030834
-0.000115412
-3.24891e-07
-7.69163e-10
2.75335e-11
0
9.32587e-12
7.68274e-11
-494.462
-5.5068
-0.030834
-0.000115412
-3.24856e-07
-5.7776e-10
-2.26485e-11
0
6.26166e-11
-1.83853e-10
-494.462
-5.5068
-0.030834
-0.000115412
-3.24869e-07
-7.62501e-10
9.32587e-12
1.0969e-10
-4.61853e-11
-1.24345e-11
-494.462
-5.5068
-0.030834
-0.000115412
-3.24858e-07
-7.62057e-10
8.21565e-11
0
-8.21565e-11
8.21565e-11
-494.462
-5.5068
-0.030834
-0.000115412
-3.24804e-07
-6.77236e-10
-2.08722e-11
-9.68114e-11
7.54952e-12
8.21565e-11
-494.462
-5.5068
-0.030834
-0.000115412
-3.24917e-07
-6.88338e-10
1.06137e-10
-4.44089e-13
-1.05693e-10
3.24185e-11
-494.462
-5.5068
-0.030834
-0.000115412
-3.24958e-07
-7.41629e-10
8.21565e-11
-2.08722e-11
-1.77636e-12
1.02141e-11
-494.462
-5.5068
-0.030834
-0.000115412
-3.24789e-07
-7.74936e-10
-5.28466e-11
8.03801e-11
3.64153e-11
-3.73035e-11
-494.462
-5.5068
-0.030834
-0.000115412
-3.24846e-07
-7.32747e-10
-6.4837e-11
0
2.62013e-11
-4.4853e-11
-494.462
-5.5068
-0.030834
-0.000115412
-3.24777e-07
-7.19425e-10
-3.64153e-11
5.37348e-11
-2.35367e-11
-3.41949e-11
-494.462
-5.5068
-0.030834
-0.000115412
-3.24806e-07
-5.74651e-10
2.70894e-11
0
1.33227e-12
-1.64757e-10
-494.462
-5.5068
-0.030834
-0.000115412
-3.24837e-07
-6.0707e-10
3.68594e-11
-1.52767e-10
-3.73035e-11
-8.88178e-13
-494.462
-5.5068
-0.030834
-0.000115412
-3.24956e-07
-6.94111e-10
8.92619e-11
0
-8.92619e-11
1.02141e-11
-494.462
-5.5068
-0.030834
-0.000115412
-3.24865e-07
-7.41629e-10
0
0
5.9508e-11
7.68274e-11
-494.462
-5.5068
-0.030834
-0.000115412
-3.24804e-07
-7.50511e-10
-6.35048e-11
6.30607e-11
7.23865e-11
-8.61533e-11
-494.462
-5.5068
-0.030834
-0.000115412
-3.24921e-07
-7.62057e-10
5.9508e-11
2.04281e-11
0
0
-494.462
-5.5068
-0.030834
-0.000115412
-3.24913e-07
-6.82121e-10
4.21885e-11
-3.64153e-11
-8.43769e-12
1.86517e-11
-494.462
-5.5068
-0.030834
-0.000115412
-3.24806e-07
-7.62501e-10
-5.9508e-11
0
5.9508e-11
2.04281e-11
-494.462
-5.5068
-0.030834
-0.000115412
-3.24885e-07
-7.55396e-10
-2.62013e-11
5.9952e-11
6.30607e-11
-6.30607e-11
-494.462
-5.5068
-0.030834
-0.000115412
-3.24806e-07
-6.82121e-10
-6.21725e-12
-5.9952e-11
-1.9984e-11
8.92619e-11
-494.462
-5.5068
-0.030834
-0.000115412
-3.24891e-07
-7.69163e-10
2.75335e-11
3.68594e-11
1.02141e-11
-1.02141e-11
-494.462
-5.5068
-0.030834
-0.000115412
-3.24878e-07
-6.62581e-10
1.8785e-10
-1.57208e-10
0
-6.66134e-12
-494.462
-5.5068
-0.030834
-0.000115412
-3.24825e-07
-7.50067e-10
1.55431e-11
-1.55431e-11
0
1.55431e-11
-494.462
-5.5068
-0.030834
-0.000115412
-3.24823e-07
-8.13127e-10
-1.68754e-11
-2.30926e-11
-6.83897e-11
6.83897e-11
-494.462
-5.5068
-0.030834
-0.000115412
-3.24957e-07
-7.65166e-10
7.10543e-12
2.30926e-11
-6.66134e-12
7.10543e-11
-494.462
-5.5068
-0.030834
-0.000115412
-3.24781e-07
-8.27338e-10
-7.9492e-11
8.03801e-11
2.66454e-11
-8.34888e-11
-494.462
-5.5068
-0.030834
-0.000115412
-3.24782e-07
-8.2423e-10
-6.4837e-11
0
2.62013e-11
6.9722e-11
-494.462
-5.5068
-0.030834
-0.000115412
-3.24866e-07
-7.54508e-10
-4.57412e-11
5.37348e-11
2.66454e-11
-5.68434e-11
-494.462
-5.5068
-0.030834
-0.000115412
-3.24858e-07
-7.62501e-10
9.01501e-11
0
-6.66134e-11
0
-494.462
-5.5068
-0.030834
-0.000115412
-3.24866e-07
-6.95e-10
-4.52971e-11
-5.9952e-11
-1.68754e-11
9.23706e-11
-494.462
-5.5068
-0.030834
-0.000115412
-3.248e-07
-7.66942e-10
-8.43769e-12
1.92735e-10
-1.06581e-11
-1.73195e-10
-494.462
-5.5068
-0.030834
-0.000115412
-3.24646e-07
-6.0707e-10
-1.54543e-10
0
-3.73035e-11
-1.53655e-10
-494.462
-5.5068
-0.030834
-0.000115412
-3.24846e-07
-6.94111e-10
-2.04281e-11
-7.01661e-11
-8.88178e-11
5.15143e-11
-494.462
-5.5068
-0.030834
-0.000115412
-3.24858e-07
-7.41629e-10
2.04281e-11
-2.04281e-11
-2.04281e-11
4.35207e-11
-494.462
-5.5068
-0.030834
-0.000115412
-3.24903e-07
-7.62501e-10
8.88178e-11
-8.52651e-11
-2.66454e-11
0
-494.462
-5.5068
-0.030834
-0.000115412
-3.24916e-07
-6.88338e-10
7.99361e-11
0
-7.99361e-11
-5.32907e-11
-494.462
-5.5068
-0.030834
-0.000115412
-3.24777e-07
-6.82121e-10
-1.77636e-11
-5.9508e-11
-7.99361e-12
4.13003e-11
-494.462
-5.5068
-0.030834
-0.000115412
-3.24899e-07
-7.75824e-10
3.68594e-11
2.04281e-11
0
-2.04281e-11
-494.462
-5.5068
-0.030834
-0.000115412
-3.24834e-07
-7.19869e-10
-2.66454e-11
2.30926e-11
9.28146e-11
-8.03801e-11
-494.462
-5.5068
-0.030834
-0.000115412
-3.24897e-07
-7.41629e-10
7.68274e-11
4.13003e-11
-9.63674e-11
-4.21885e-11
-494.462
-5.5068
-0.030834
-0.000115412
-3.24786e-07
-5.73763e-10
-3.9968e-11
-1.56763e-10
-8.43769e-12
-3.55271e-11
-494.462
-5.5068
-0.030834
-0.000115412
-3.24736e-07
-7.776e-10
8.88178e-13
-1.33227e-12
-1.09246e-10
4.9738e-11
-494.462
-5.5068
-0.030834
-0.000115412
-3.24803e-07
-7.67386e-10
-3.90799e-11
-8.88178e-12
-4.88498e-12
1.94955e-10
-494.462
-5.5068
-0.030834
-0.000115412
-3.24891e-07
-7.60281e-10
-8.88178e-13
2.93099e-11
-8.88178e-13
-2.75335e-11
-494.462
-5.5068
-0.030834
-0.000115412
-3.24844e-07
-6.66578e-10
1.37668e-11
-1.56763e-10
1.82077e-11
3.90799e-11
-494.462
-5.5068
-0.030834
-0.000115412
-3.24842e-07
-7.66942e-10
0
3.68594e-11
0
-3.68594e-11
-494.462
-5.5068
-0.030834
-0.000115412
-3.24834e-07
-7.95364e-10
2.75335e-11
8.88178e-12
8.88178e-13
1.86517e-11
-494.462
-5.5068
-0.030834
-0.000115412
-3.24863e-07
-7.72715e-10
8.43769e-12
-8.43769e-12
-3.77476e-11
-2.84217e-11
-494.462
-5.5068
-0.030834
-0.000115412
-3.24843e-07
-7.90035e-10
-7.99361e-12
9.76996e-12
-1.02141e-11
-1.82077e-11
-494.462
-5.5068
-0.030834
-0.000115412
-3.24881e-07
-7.95364e-10
1.63869e-10
3.5083e-11
-1.63425e-10
1.56763e-10
-494.462
-5.5068
-0.030834
-0.000115412
-3.24675e-07
-7.63389e-10
-1.58096e-10
1.59428e-10
1.5854e-10
-1.58096e-10
1.77636e-12
2.22045e-12
-2.66454e-12
3.9968e-12
-3.9968e-12
4.44089e-13
0
-2.22045e-12
5.77316e-12
-3.9968e-12
-8.88178e-12
-1.33227e-12
1.33227e-11
1.33227e-12
1.57652e-10
-1.24345e-11
-1.5854e-10
1.33227e-11
1.2168e-10
-4.44089e-13
-4.08562e-11
-4.4853e-11
1.33227e-12
-4.44089e-13
1.54099e-10
-1.24345e-11
-1.58096e-10
1.64313e-11
-1.77636e-12
-4.44089e-13
5.32907e-12
1.52767e-10
5.01821e-11
0
-8.08242e-11
2.22045e-12
3.01981e-11
-1.54543e-10
-7.10543e-12
0
1.72307e-10
0
-1.50102e-10
1.59872e-10
5.77316e-12
-1.64313e-10
-1.33227e-12
5.77316e-12
1.54099e-10
-4.44089e-13
-4.08562e-11
1.85629e-10
4.44089e-13
-1.61648e-10
1.53655e-10
-1.24345e-11
3.9968e-12
1.64313e-11
-1.63869e-10
-4.44089e-13
1.95399e-11
-1.59428e-10
2.22045e-12
0
5.77316e-12
-4.44089e-12
-1.33227e-12
5.68434e-11
1.54543e-10
-5.19584e-11
-4.44089e-12
-1.15463e-11
1.83853e-10
1.73195e-11
1.77636e-12
-2.79776e-11
-1.57208e-10
0
0
4.44089e-12
1.92291e-10
7.54952e-12
8.88178e-13
1.58984e-10
-1.77636e-12
-1.02141e-11
-1.54543e-10
-1.54099e-10
1.54543e-10
4.88498e-12
1.0969e-10
0
-8.88178e-13
0
4.44089e-13
-2.22045e-12
1.77636e-12
-9.72555e-11
-2.66454e-12
9.99201e-11
-8.88178e-12
-1.33227e-12
1.68754e-10
1.77636e-12
1.77636e-12
-2.66454e-11
-1.5854e-10
2.75335e-11
1.2168e-10
-4.44089e-13
-1.24345e-11
5.81757e-11
1.9984e-11
1.33227e-11
-8.43769e-12
1.15463e-11
-2.30926e-11
1.9984e-11
1.42109e-11
-1.02585e-10
-9.68114e-11
3.86358e-11
8.88178e-12
0
1.01696e-10
2.4869e-11
-2.84217e-11
-9.81437e-11
2.84217e-11
1.02141e-10
-4.39648e-11
4.39648e-11
-4.44089e-13
8.88178e-12
8.92619e-11
3.81917e-11
-4.44089e-13
-2.62013e-11
-3.55271e-11
1.5099e-11
5.28466e-11
3.90799e-11
-3.37508e-11
-6.4837e-11
7.06102e-11
2.35367e-11
-2.93099e-11
3.37508e-11
2.84217e-11
-1.19904e-11
-4.26326e-11
0
3.86358e-11
2.88658e-11
1.77636e-11
-5.01821e-11
-2.84217e-11
-6.12843e-11
2.9754e-11
8.17124e-11
-2.08722e-11
3.86358e-11
6.08402e-11
7.10543e-12
4.9738e-11
-2.75335e-11
0
3.15303e-11
-5.72875e-11
-1.06581e-11
-1.28786e-11
-3.64153e-11
8.9706e-11
3.55271e-11
8.88178e-13
-8.43769e-11
-5.32907e-12
0
0
8.65974e-11
5.41789e-11
0
3.86358e-11
2.88658e-11
1.77636e-11
-5.01821e-11
8.88178e-13
-6.08402e-11
0
1.10578e-10
7.99361e-12
1.6831e-10
-1.59872e-11
-1.5854e-10
1.24345e-11
-1.68754e-11
1.62981e-10
1.73195e-11
-5.77316e-12
1.58096e-10
-4.08562e-11
-4.4853e-11
1.33227e-12
1.62537e-10
-5.32907e-12
-7.99361e-12
2.22045e-12
-1.51434e-10
1.57652e-10
-3.9968e-12
-4.26326e-11
-2.88658e-11
-4.52971e-11
2.88658e-11
1.01696e-10
-5.01821e-11
-2.84217e-11
-6.08402e-11
2.93099e-11
6.17284e-11
6.12843e-11
-9.59233e-11
3.24185e-11
3.28626e-11
-4.9738e-11
-2.66454e-11
6.08402e-11
7.63833e-11
-6.08402e-11
1.28786e-11
5.68434e-11
5.86198e-11
-2.66454e-11
3.55271e-11
8.43769e-12
-3.9968e-12
-4.44089e-13
-2.62013e-11
-6.4837e-11
-6.39488e-11
9.32587e-11
-7.59393e-11
-8.88178e-13
0
-7.19425e-11
7.19425e-11
8.88178e-13
-8.88178e-13
8.88178e-13
-7.28306e-11
-7.14984e-11
-4.88498e-11
9.19265e-11
0
-5.72875e-11
-5.37348e-11
6.79456e-11
0
-4.88498e-11
5.37348e-11
9.76996e-12
0
0
-2.26485e-11
1.24345e-11
7.28306e-11
0
-6.26166e-11
-2.26485e-11
6.57252e-11
8.03801e-11
-7.14984e-11
1.28786e-11
7.14984e-11
-7.59393e-11
-1.42109e-11
2.39808e-11
3.5083e-11
4.84057e-11
-8.43769e-12
2.04281e-11
0
-1.00364e-10
-2.26485e-11
0
3.37508e-11
4.35207e-11
4.66294e-11
-8.88178e-13
-3.10862e-12
-3.28626e-11
4.44089e-13
-4.44089e-13
2.84217e-11
4.44089e-12
-3.28626e-11
4.44089e-13
-4.44089e-13
2.84217e-11
4.44089e-12
5.32907e-12
-7.10543e-12
5.01821e-11
0
-5.01821e-11
1.62093e-10
-4.44089e-13
-1.54543e-10
-7.10543e-12
0
-4.39648e-11
-3.5083e-11
-4.44089e-13
8.88178e-12
1.02141e-11
3.81917e-11
1.03029e-10
-9.14824e-11
-3.10862e-12
8.03801e-11
-1.28786e-11
-1.37668e-11
4.39648e-11
3.55271e-11
7.99361e-12
-1.15463e-11
0
1.9984e-11
1.42109e-11
-3.06422e-11
1.19904e-11
-1.33227e-11
2.66454e-11
1.33227e-11
-6.03961e-11
2.13163e-11
0
-8.88178e-13
7.23865e-11
-5.63993e-11
-9.76996e-11
0
9.23706e-11
7.90479e-11
-9.05942e-11
-8.92619e-11
0
8.43769e-12
1.03473e-10
1.33227e-12
4.44089e-13
-1.02141e-11
7.99361e-11
7.10543e-11
1.77636e-12
5.77316e-12
-4.44089e-13
-1.68754e-11
2.22045e-11
1.82077e-11
-4.88498e-12
0
-2.66454e-11
7.86038e-11
1.55431e-11
-6.88338e-11
0
8.03801e-11
-8.88178e-13
-9.01501e-11
-2.66454e-11
8.43769e-12
4.44089e-13
-2.4869e-11
-2.17604e-11
-6.79456e-11
-2.39808e-11
0
2.39808e-11
9.28146e-11
3.41949e-11
-9.32587e-12
5.55112e-11
4.44089e-13
-2.04281e-11
3.90799e-11
-7.9492e-11
2.04281e-11
4.30767e-11
-4.44089e-11
4.44089e-12
-4.44089e-13
-1.24345e-11
3.06422e-11
1.33227e-11
1.55431e-10
-4.44089e-13
-1.55875e-10
1.56763e-10
-2.93099e-11
-8.43769e-12
8.43769e-12
3.64153e-11
0
1.53655e-10
1.51434e-10
-1.53655e-10
-1.51434e-10
1.54099e-10
-4.44089e-13
8.92619e-11
2.84217e-11
-7.90479e-11
0
7.99361e-11
-3.68594e-11
4.44089e-13
-5.32907e-11
-4.88498e-11
4.17444e-11
1.12799e-10
4.21885e-11
-1.9984e-11
-4.17444e-11
-7.28306e-11
1.9984e-11
-9.76996e-12
5.15143e-11
1.11022e-11
-7.28306e-11
-5.41789e-11
2.44249e-11
9.85878e-11
-7.9492e-11
-9.72555e-11
-2.53131e-11
0
5.24025e-11
7.54952e-12
-5.10703e-11
9.32587e-11
0
0
0
-1.28786e-11
1.28786e-11
-8.08242e-11
0
8.08242e-11
-1.28786e-11
-4.92939e-11
6.26166e-11
7.9492e-11
0
-3.59712e-11
-5.32907e-12
-3.10862e-11
-6.9722e-11
6.26166e-11
1.28786e-11
2.04281e-11
0
0
-5.9952e-11
-7.99361e-11
7.99361e-11
5.9952e-11
0
-5.9952e-11
-5.68434e-11
2.04281e-11
0
8.03801e-11
7.19425e-11
-8.39329e-11
-1.42109e-11
8.9706e-11
0
-1.82077e-11
2.75335e-11
-2.62013e-11
4.44089e-13
-5.41789e-11
0
9.23706e-11
-5.50671e-11
1.68754e-11
0
-4.44089e-13
1.9984e-11
-6.21725e-12
-4.88498e-11
0
0
1.62981e-10
3.55271e-12
-1.17684e-10
0
-4.88498e-11
1.33227e-12
-4.08562e-11
1.85629e-10
-1.59872e-11
-1.62093e-10
1.74527e-10
-1.24345e-11
0
1.64313e-11
-1.63869e-10
1.57652e-10
6.61693e-11
1.46549e-11
-3.59712e-11
-4.44089e-13
3.68594e-11
-6.9722e-11
0
6.92779e-11
-2.9754e-11
1.77636e-12
8.43769e-12
0
0
-7.19425e-11
8.83738e-11
5.77316e-12
1.37668e-11
-7.54952e-12
-4.44089e-12
5.41789e-11
-3.9968e-12
-4.79616e-11
-9.32587e-11
-2.35367e-11
1.04805e-10
4.35207e-11
-2.22045e-11
3.86358e-11
-4.08562e-11
-3.9968e-12
9.28146e-11
-1.77636e-12
3.9968e-12
-4.21885e-11
-7.63833e-11
3.10862e-11
2.26485e-11
0
0
1.28786e-11
-5.77316e-12
1.03029e-10
3.28626e-11
-5.06262e-11
-6.39488e-11
-5.37348e-11
-3.28626e-11
6.52811e-11
5.24025e-11
3.19744e-11
2.13163e-11
4.52971e-11
6.66134e-12
1.68754e-11
-8.70415e-11
-5.32907e-12
2.35367e-11
-8.88178e-13
3.73035e-11
-3.9968e-12
6.57252e-11
1.64313e-11
-3.55271e-11
-1.64313e-11
-5.68434e-11
9.01501e-11
8.9706e-11
-6.21725e-12
-2.66454e-12
4.44089e-13
8.03801e-11
-9.32587e-12
-2.57572e-11
-1.02141e-11
-5.41789e-11
5.72875e-11
4.21885e-11
0
-1.86517e-11
-3.9968e-12
7.99361e-12
1.66978e-10
-2.22045e-11
0
-5.77316e-12
-1.89626e-10
1.86517e-11
0
-1.82077e-11
2.26485e-11
3.5083e-11
8.43769e-12
1.33227e-12
1.58984e-10
1.54099e-10
-1.75415e-10
-1.54543e-10
1.68754e-11
-5.77316e-12
1.59428e-10
9.32587e-11
-2.88658e-11
-1.86517e-11
2.84217e-11
3.68594e-11
-6.9722e-11
-2.93099e-11
6.88338e-11
0
-4.70735e-11
1.9984e-11
-5.37348e-11
-2.57572e-11
6.21725e-11
-4.44089e-13
1.33227e-12
1.55431e-11
-6.66134e-12
1.64313e-11
-7.9492e-11
-8.52651e-11
6.88338e-11
5.32907e-11
1.55431e-11
1.55431e-11
-3.10862e-11
-7.86038e-11
-5.37348e-11
0
6.88338e-11
-5.01821e-11
6.21725e-11
1.02141e-11
-1.9984e-11
6.92779e-11
3.81917e-11
-2.93099e-11
-7.01661e-11
-3.68594e-11
-1.02141e-11
4.44089e-13
-8.88178e-12
6.66134e-12
-1.9984e-11
-6.12843e-11
2.04281e-11
1.02141e-11
7.54952e-12
1.00808e-10
4.4853e-11
-2.53131e-11
-1.11022e-11
7.54952e-12
5.15143e-11
-6.08402e-11
-8.43769e-12
2.13163e-11
-8.88178e-13
2.35367e-11
5.15143e-11
-1.77636e-11
1.64313e-11
0
-1.64313e-11
-4.52971e-11
8.34888e-11
9.01501e-11
-3.9968e-12
-2.22045e-12
4.44089e-12
5.59552e-11
-4.70735e-11
-3.55271e-11
-1.90958e-11
2.66454e-11
3.01981e-11
-8.03801e-11
0
5.9952e-11
-7.41629e-11
-4.44089e-13
9.32587e-12
8.88178e-13
-3.10862e-11
-2.75335e-11
2.93099e-11
1.90958e-11
0
1.66533e-10
-3.9968e-12
-1.66978e-10
1.52767e-10
-2.70894e-11
-1.49214e-10
1.90514e-10
-7.54952e-12
-1.53211e-10
0
-2.22045e-12
1.55431e-10
-7.99361e-12
9.32587e-12
-9.72555e-11
-3.10862e-12
1.05249e-10
-1.37668e-11
-4.44089e-13
-5.32907e-11
6.21725e-12
1.68754e-11
-2.08722e-11
8.88178e-13
7.37188e-11
0
3.90799e-11
1.82077e-11
-7.19425e-11
-7.10543e-12
4.84057e-11
1.33227e-12
5.24025e-11
8.43769e-12
0
4.44089e-13
-2.22045e-11
-9.23706e-11
0
0
5.50671e-11
4.79616e-11
3.64153e-11
1.64313e-11
-8.03801e-11
-1.64313e-11
8.92619e-11
4.39648e-11
2.13163e-11
-1.73195e-11
-5.77316e-12
5.77316e-11
6.61693e-11
-2.39808e-11
-9.32587e-12
2.44249e-11
-5.9952e-11
-7.28306e-11
0
5.9952e-11
-3.06422e-11
-9.14824e-11
0
1.59872e-11
0
-1.59872e-11
-3.10862e-12
7.63833e-11
6.92779e-11
1.82077e-11
-2.08722e-11
-1.02141e-11
3.33067e-11
7.86038e-11
-5.32907e-11
-2.04281e-11
7.54952e-11
-5.50671e-11
1.77636e-11
0
-3.86358e-11
2.04281e-11
8.03801e-11
-2.39808e-11
-2.62013e-11
2.44249e-11
5.28466e-11
-5.19584e-11
-6.61693e-11
-6.66134e-12
-3.06422e-11
3.90799e-11
-8.88178e-12
1.74971e-10
4.44089e-13
-3.68594e-11
1.94511e-10
-1.2701e-10
0
-3.10862e-12
-8.88178e-13
-2.44249e-11
1.92291e-10
7.54952e-12
-1.6076e-10
1.59872e-10
1.58984e-10
-1.80744e-10
-1.54543e-10
1.64313e-11
-4.88498e-12
3.9968e-12
1.10134e-10
-8.88178e-13
-7.90479e-11
2.22045e-11
8.12683e-11
-3.06422e-11
-2.88658e-11
-5.41789e-11
-1.90958e-11
9.10383e-11
8.43769e-12
0
9.23706e-11
-8.88178e-13
-1.00364e-10
-2.66454e-11
8.92619e-11
-7.99361e-12
-4.57412e-11
1.19904e-11
-6.26166e-11
-1.02141e-11
1.0969e-10
9.4591e-11
-2.04281e-11
4.88498e-12
-7.90479e-11
-2.93099e-11
0
8.88178e-12
9.23706e-11
-9.32587e-12
3.10862e-12
9.54792e-11
-2.26485e-11
-1.24345e-11
6.21725e-12
0
0
-7.28306e-11
1.9984e-11
-8.43769e-12
-5.81757e-11
9.32587e-12
6.35048e-11
1.15463e-11
-6.9722e-11
1.37668e-11
8.65974e-11
1.82077e-11
2.04281e-11
8.17124e-11
7.10543e-12
-8.21565e-11
2.66454e-12
1.00364e-10
-1.0969e-10
0
5.4623e-11
-7.99361e-11
-1.0969e-10
1.64313e-11
0
7.54952e-12
1.68754e-11
2.04281e-11
9.01501e-11
-7.10543e-12
-5.32907e-11
1.64313e-11
1.00364e-10
6.88338e-11
7.10543e-12
-6.88338e-11
-1.0747e-10
7.99361e-11
6.26166e-11
6.66134e-12
-6.21725e-11
-1.11022e-11
7.99361e-12
3.5083e-11
-2.13163e-11
1.77636e-12
1.77636e-10
-3.28626e-11
-1.92291e-10
0
2.84217e-11
4.88498e-12
-4.84057e-11
1.11022e-10
5.90639e-11
0
9.76996e-11
-2.22045e-12
2.22045e-12
-9.72555e-11
-2.66454e-12
9.99201e-11
1.59872e-10
-1.59872e-10
-1.68754e-10
1.54543e-10
1.72307e-10
-1.54099e-10
-1.58984e-10
-2.79776e-11
0
1.82077e-11
1.80744e-10
0
-1.81632e-10
0
1.92735e-10
1.78524e-10
-1.85185e-10
-6.66134e-12
2.22045e-12
-1.72307e-10
3.10862e-12
-3.86358e-11
-1.28786e-11
-2.9754e-11
1.33227e-11
1.64313e-11
-3.06422e-11
1.69642e-10
2.4869e-11
-1.85185e-10
1.81188e-10
3.19744e-11
7.10543e-12
-5.32907e-12
-1.58984e-10
1.53655e-10
-2.88658e-11
4.44089e-13
0
-1.43441e-10
0
1.66533e-10
2.66454e-12
0
1.6076e-10
-1.33227e-12
-1.57208e-10
-1.6076e-10
-2.88658e-11
-3.9968e-12
1.92291e-10
3.5083e-11
4.44089e-13
-2.93099e-11
4.44089e-13
2.17604e-11
-1.92291e-10
1.63869e-10
1.93623e-10
-1.64313e-10
0
1.74971e-10
0
0
1.49214e-10
-1.58096e-10
-1.21236e-10
-8.88178e-13
-2.9754e-11
4.70735e-11
-2.84217e-11
1.77636e-12
4.44089e-12
-1.62093e-10
8.34888e-11
-3.24185e-11
-4.9738e-11
3.9968e-12
-2.84217e-11
1.87406e-10
-1.77636e-12
-8.88178e-13
-1.77636e-12
1.58096e-10
-1.55875e-10
-1.57652e-10
1.33227e-12
1.56763e-10
1.57652e-10
8.88178e-13
-5.77316e-12
2.22045e-12
0
-2.22045e-12
1.77636e-12
0
4.44089e-13
0
-1.58096e-10
-1.56319e-10
-1.22125e-10
-5.77316e-12
-4.44089e-13
6.21725e-12
-3.55271e-12
0
0
0
1.58096e-10
1.54543e-10
6.66134e-12
1.33227e-12
-2.22045e-12
-8.88178e-13
0
0
-2.26485e-11
0
1.77636e-10
1.54543e-10
7.10543e-12
-6.21725e-12
-3.10862e-11
-2.44249e-11
1.8785e-10
2.22045e-12
4.44089e-13
-2.22045e-12
1.33227e-12
1.89182e-10
4.88498e-12
1.33227e-12
0
1.5854e-10
0
0
-1.69642e-10
0
1.7053e-10
1.33227e-12
-3.06422e-11
5.24025e-11
1.94955e-10
1.07914e-10
0
0
-1.95399e-11
0
2.04281e-11
1.33227e-12
-1.58096e-10
-1.59872e-11
0
1.24345e-11
1.62981e-10
0
-8.88178e-13
-4.44089e-12
0
1.67422e-10
-8.88178e-13
2.30926e-11
-3.55271e-12
1.46994e-10
-1.95399e-11
-1.50546e-10
2.30926e-11
-1.33227e-12
1.57208e-10
1.64757e-10
-1.90514e-10
-1.19904e-11
1.95399e-10
1.71863e-10
0
0
-4.44089e-13
0
1.33227e-12
1.33227e-12
-3.9968e-12
-4.44089e-13
6.21725e-12
4.44089e-13
0
0
-1.6076e-10
0
-1.77636e-12
-1.62537e-10
-1.22125e-10
-6.21725e-12
0
6.21725e-12
-3.55271e-12
0
0
0
1.58096e-10
1.54543e-10
-1.37668e-11
4.30767e-11
-4.44089e-13
2.88658e-11
-2.13163e-11
0
1.33227e-12
-6.12843e-11
2.08278e-10
2.50466e-10
-1.11022e-10
-3.68594e-11
6.30607e-11
-1.19904e-11
4.92939e-11
-8.88178e-13
-7.90479e-11
0
7.68274e-11
4.66294e-11
3.55271e-11
-2.84217e-11
0
2.84217e-11
0
7.54952e-12
-3.4639e-11
0
3.64153e-11
-6.21725e-12
-3.64153e-11
1.15463e-11
-1.11022e-11
-1.19904e-11
4.92939e-11
-8.88178e-13
-6.70575e-11
0
5.4623e-11
3.59712e-11
-2.88658e-11
1.46549e-11
-4.44089e-13
-1.42109e-11
2.88658e-11
0
-6.21725e-12
2.84217e-11
1.67866e-10
1.6076e-10
2.62013e-11
-5.15143e-11
1.77636e-12
5.19584e-11
2.88658e-11
0
0
0
1.57652e-10
1.86962e-10
-2.26485e-11
-3.28626e-11
2.84217e-11
3.64153e-11
-6.92779e-11
4.44089e-13
3.28626e-11
-4.44089e-13
1.92735e-10
1.56319e-10
-2.88658e-11
-7.06102e-11
0
4.17444e-11
2.88658e-11
0
0
0
1.33227e-12
2.9754e-11
-1.62093e-10
-1.74083e-10
-8.88178e-13
7.10543e-12
0
0
-2.62013e-11
0
1.94067e-10
1.6831e-10
-1.90514e-10
4.44089e-12
3.24185e-11
1.5854e-10
0
-1.62981e-10
-1.90958e-11
0
1.77192e-10
1.58096e-10
0
-4.57412e-11
-4.84057e-11
9.50351e-11
-8.88178e-13
-4.84057e-11
4.21885e-11
0
1.67422e-10
2.0961e-10
0
5.32907e-12
6.61693e-11
-6.75016e-11
-7.59393e-11
-8.88178e-13
7.81597e-11
0
-7.54952e-12
6.08402e-11
6.52811e-11
4.30767e-11
-7.19425e-11
2.88658e-11
5.01821e-11
-7.23865e-11
2.22045e-12
1.02141e-11
1.97176e-10
2.39364e-10
0
9.01501e-11
0
-9.01501e-11
0
0
9.01501e-11
0
-2.4869e-11
6.4837e-11
0
4.84057e-11
0
-4.84057e-11
0
0
-2.13163e-11
4.79616e-11
6.83897e-11
-2.22045e-12
8.88178e-13
1.55431e-11
7.68274e-11
-9.23706e-11
-5.37348e-11
7.63833e-11
6.9722e-11
0
-2.79776e-11
-1.11022e-11
-2.70894e-11
-9.23706e-11
4.84057e-11
5.32907e-11
-8.43769e-12
4.75175e-11
3.10862e-12
-5.63993e-11
-9.32587e-12
4.21885e-11
-2.26485e-11
1.42109e-11
7.59393e-11
-9.01501e-11
-5.37348e-11
7.63833e-11
6.35048e-11
-5.32907e-11
-2.17604e-11
4.21885e-11
0
1.81188e-10
-2.84217e-11
-1.52767e-10
0
-2.84217e-11
1.81188e-10
0
5.77316e-12
1.86962e-10
-2.35367e-11
-6.66134e-12
3.10862e-11
-2.44249e-11
-8.88178e-13
7.01661e-11
1.58096e-10
-3.95239e-11
0
1.57652e-10
-2.13163e-11
-2.75335e-11
-8.88178e-13
2.84217e-11
0
7.54952e-12
1.15463e-11
0
1.33227e-11
1.73195e-11
-7.10543e-12
2.93099e-11
0
-2.22045e-11
-2.84217e-11
0
5.01821e-11
0
1.59428e-10
1.82077e-10
-5.10703e-11
-4.44089e-13
4.17444e-11
8.83738e-11
-1.11022e-11
8.88178e-13
-4.44089e-12
0
1.81188e-10
1.66089e-10
-2.39808e-11
1.01252e-10
-7.9492e-11
-2.17604e-11
7.90479e-11
-7.90479e-11
1.77636e-11
4.44089e-13
6.66134e-12
1.03473e-10
-4.44089e-12
-7.9492e-11
-8.08242e-11
5.86198e-11
4.26326e-11
-2.84217e-11
0
-4.04121e-11
5.06262e-11
9.28146e-11
-6.21725e-12
5.72875e-11
2.88658e-11
1.42109e-11
-1.00364e-10
2.84217e-11
5.10703e-11
0
5.10703e-11
1.33227e-12
-3.10862e-11
-8.30447e-11
1.03473e-10
4.4853e-11
-1.03473e-10
-2.30926e-11
1.01252e-10
6.12843e-11
2.22045e-12
0
4.75175e-11
-3.81917e-11
-8.08242e-11
5.86198e-11
-1.02141e-11
-2.84217e-11
5.28466e-11
-4.04121e-11
5.06262e-11
9.28146e-11
-1.57208e-10
1.83853e-10
-1.77636e-12
-1.52767e-10
0
-1.77636e-12
1.56763e-10
0
2.22045e-12
1.58984e-10
-1.53211e-10
8.88178e-13
-1.33227e-12
-1.33227e-12
0
0
1.77636e-12
0
1.53211e-10
1.54543e-10
4.92939e-11
-4.66294e-11
-4.84057e-11
9.50351e-11
-8.88178e-13
-4.84057e-11
-3.06422e-11
4.39648e-11
2.39808e-10
1.66089e-10
0
9.32587e-11
7.99361e-11
-9.32587e-11
-1.82077e-11
-4.44089e-13
3.19744e-11
0
-2.79776e-11
6.4837e-11
9.37028e-11
4.30767e-11
-2.88658e-11
5.77316e-11
-6.66134e-12
-2.88658e-11
-1.33227e-11
-6.12843e-11
1.97176e-10
2.39364e-10
-5.9952e-11
-1.24345e-11
0
-4.70735e-11
5.9508e-11
0
-1.19904e-11
-4.44089e-13
1.77636e-11
6.52811e-11
-8.88178e-12
-2.75335e-11
-5.32907e-11
2.70894e-11
0
0
3.10862e-11
0
2.93099e-11
6.08402e-11
7.63833e-11
6.08402e-11
-5.28466e-11
-6.17284e-11
0
0
6.08402e-11
8.88178e-13
4.79616e-11
1.0969e-10
1.68754e-11
-8.43769e-12
-5.24025e-11
1.28786e-11
4.79616e-11
-5.24025e-11
-4.84057e-11
8.88178e-13
3.64153e-11
3.64153e-11
-1.0969e-10
3.73035e-11
7.99361e-11
-1.11022e-10
2.9754e-11
7.99361e-11
-2.22045e-12
-4.44089e-13
-3.01981e-11
-3.55271e-12
1.66533e-10
1.57652e-10
-1.61648e-10
3.9968e-12
0
-1.62093e-10
1.58096e-10
0
4.88498e-12
1.63425e-10
-3.01981e-11
-1.06137e-10
3.24185e-11
1.07025e-10
0
-1.62981e-10
0
0
1.64313e-10
1.64313e-10
-8.26006e-11
-1.77636e-11
1.11022e-10
-2.9754e-11
-2.93099e-11
4.84057e-11
2.22045e-11
0
-8.43769e-12
-1.55431e-11
0
4.84057e-11
4.88498e-12
-4.88498e-12
-4.92939e-11
5.77316e-12
4.84057e-11
0
1.59872e-10
1.59428e-10
-3.06422e-11
1.55431e-11
1.02141e-11
8.43769e-12
6.92779e-11
-3.10862e-11
6.66134e-12
-6.12843e-11
1.74083e-10
2.50466e-10
0
1.33227e-12
3.01981e-11
-6.39488e-11
2.22045e-11
1.95399e-11
-9.4591e-11
0
8.92619e-11
2.79776e-11
4.30767e-11
-6.52811e-11
3.9968e-12
6.4837e-11
-9.23706e-11
0
9.41469e-11
0
1.59428e-10
1.64757e-10
2.62013e-11
-2.30926e-11
3.9968e-12
3.15303e-11
-2.04281e-11
0
8.88178e-12
0
1.72751e-10
1.64757e-10
-6.08402e-11
-4.04121e-11
4.57412e-11
-1.73195e-11
2.13163e-11
3.15303e-11
-1.01252e-10
1.37668e-11
1.03917e-10
2.44249e-11
6.26166e-11
-5.63993e-11
3.9968e-12
6.4837e-11
-2.04281e-11
0
-2.70894e-11
8.88178e-13
2.07834e-10
1.64757e-10
6.75016e-11
3.55271e-12
1.04805e-10
-3.9968e-12
-1.43885e-10
4.88498e-11
4.44089e-13
0
1.57652e-10
1.18128e-10
-3.06422e-11
-1.71863e-10
1.94955e-10
1.72307e-10
0
0
-4.44089e-13
0
1.33227e-12
1.33227e-12
2.88658e-11
4.4853e-11
-4.79616e-11
3.10862e-12
0
-4.84057e-11
4.92939e-11
4.30767e-11
1.48326e-10
1.54099e-10
0
6.70575e-11
-8.88178e-12
1.82077e-11
-7.68274e-11
-8.43769e-12
5.32907e-11
0
1.96732e-10
1.73639e-10
1.9984e-11
3.9968e-12
5.15143e-11
-1.06581e-11
6.66134e-12
-2.08722e-11
1.68754e-11
7.99361e-12
5.77316e-12