/*--------------------------------*- C++ -*----------------------------------*\
  =========                 |
  \\      /  F ield         | OpenFOAM: The Open Source CFD Toolbox
   \\    /   O peration     | Website:  https://openfoam.org
    \\  /    A nd           | Version:  10
     \\/     M anipulation  |
\*---------------------------------------------------------------------------*/
FoamFile
{
    format      ascii;
    class       volScalarField;
    location    "1.7";
    object      gradTy;
}
// * * * * * * * * * * * * * * * * * * * * * * * * * * * * * * * * * * * * * //

dimensions      [0 -1 0 1 0 0 0];

internalField   nonuniform List<scalar> 
3000
(
-1.31051e-09
-2.17604e-11
2.62013e-11
-1.95399e-11
-1.15463e-11
-1.95399e-11
-7.10543e-12
-9.4591e-11
-1.95399e-11
-9.81437e-11
-1.27809e-09
-2.17604e-11
1.86517e-11
1.02141e-11
-1.9984e-11
8.88178e-13
-2.26485e-11
-9.50351e-11
9.28146e-11
-9.4591e-11
1.06581e-11
0
-1.90958e-11
6.66134e-12
5.01821e-11
1.12799e-10
4.44089e-13
9.41469e-11
1.24345e-11
0
-3.64153e-11
6.21725e-12
-3.81917e-11
-3.15303e-11
-4.44089e-13
-2.26485e-11
1.73195e-11
9.4591e-11
0
-1.90958e-11
-1.90958e-11
-7.99361e-12
1.19904e-11
-7.54952e-12
-5.90639e-11
-9.41469e-11
-1.59872e-11
-1.13687e-10
9.90319e-11
2.66454e-12
4.44089e-13
-6.66134e-12
0
-3.10862e-12
1.15463e-11
1.14575e-10
8.70415e-11
0
-1.15463e-11
0
3.59712e-11
5.9952e-11
4.44089e-12
2.93099e-11
2.04281e-11
4.44089e-13
7.99361e-12
1.13687e-10
-9.19265e-11
-1.42109e-11
-5.32907e-12
1.5099e-11
6.08402e-11
2.70894e-11
4.84057e-11
0
-8.70415e-11
-9.4591e-11
0
-3.10862e-12
-6.79456e-11
1.30163e-09
-1.46549e-11
2.75335e-11
-8.88178e-13
9.41469e-11
1.08358e-10
-6.21725e-12
-1.33227e-12
1.42109e-11
-3.24185e-11
1.33982e-09
-3.33067e-11
3.28626e-11
-3.9968e-11
2.22045e-12
1.00364e-10
8.74856e-11
-8.21565e-11
2.26485e-11
-1.33493e-09
2.04281e-11
-1.82077e-11
-4.35207e-11
-5.32907e-11
-4.21885e-11
-3.59712e-11
-1.11022e-10
-5.81757e-11
-1.77636e-12
-1.31006e-09
-2.26485e-11
7.10543e-12
-4.30767e-11
-7.23865e-11
-2.66454e-12
-6.61693e-11
-1.10578e-10
-4.44089e-13
-9.32587e-12
1.77636e-12
4.44089e-12
1.55431e-11
5.77316e-12
5.28466e-11
5.55112e-11
6.66134e-12
-4.88498e-12
2.4869e-11
-3.73035e-11
-3.15303e-11
6.21725e-12
-3.10862e-11
-4.44089e-13
0
-5.06262e-11
3.06422e-11
7.99361e-12
-3.86358e-11
-4.88498e-11
-1.5099e-11
-4.79616e-11
9.76996e-12
1.95399e-11
-7.10543e-11
-1.73195e-11
-3.64153e-11
4.88498e-12
3.24185e-11
3.01981e-11
4.44089e-13
0
0
5.32907e-12
5.68434e-11
0
3.41949e-11
0
3.41949e-11
4.44089e-13
3.06422e-11
2.84217e-11
4.44089e-12
-1.95399e-11
6.52811e-11
6.66134e-12
1.9984e-11
7.99361e-12
-4.88498e-11
-4.08562e-11
-2.66454e-12
-3.9968e-12
5.41789e-11
0
1.33227e-11
6.92779e-11
0
-7.99361e-12
-4.26326e-11
-1.24345e-11
1.32783e-09
1.37002e-09
-1.55431e-11
3.10862e-12
-3.9968e-12
1.55431e-11
3.06422e-11
1.01696e-10
3.01981e-11
4.57412e-11
1.3527e-09
1.39666e-09
-3.41949e-11
2.66454e-12
-7.54952e-12
3.9968e-12
-1.46549e-11
1.0969e-10
2.84217e-11
6.66134e-11
-1.37401e-09
-1.5099e-11
-1.24345e-11
-2.08722e-11
-5.9952e-11
-2.17604e-11
-1.77636e-12
-7.54952e-12
-9.59233e-11
-1.15463e-11
-1.36069e-09
8.88178e-12
1.06581e-11
-6.52811e-11
-3.10862e-12
-4.88498e-12
-3.86358e-11
-4.44089e-12
-1.65201e-10
-7.37188e-11
2.88658e-11
4.30767e-11
-2.53131e-11
-2.53131e-11
1.86517e-11
-5.06262e-11
-1.82077e-11
-8.43769e-12
-6.9722e-11
-3.06422e-11
-3.81917e-11
-3.68594e-11
-2.62013e-11
-8.88178e-13
-5.72875e-11
-6.88338e-11
-1.24345e-11
-5.59552e-11
0
8.88178e-13
-1.64313e-11
-1.9984e-11
4.84057e-11
-2.79776e-11
5.06262e-11
0
-1.82077e-11
1.02141e-11
0
1.95399e-11
0
3.01981e-11
-2.30926e-11
0
6.66134e-12
0
1.28786e-11
1.82077e-11
1.19904e-11
1.19904e-11
6.66134e-12
-2.35367e-11
-3.28626e-11
4.52971e-11
-5.32907e-12
7.06102e-11
0
-1.06581e-11
1.28786e-11
-5.06262e-11
6.79456e-11
3.55271e-11
-4.88498e-12
2.70894e-11
-6.66134e-12
-4.44089e-13
0
-1.82077e-11
-1.19904e-11
3.86358e-11
1.35003e-09
1.34515e-09
-5.77316e-12
-9.32587e-12
-3.9968e-12
-1.95399e-11
3.86358e-11
-3.10862e-12
6.08402e-11
7.37188e-11
1.32605e-09
1.29496e-09
1.5099e-11
1.77636e-12
5.90639e-11
5.06262e-11
3.77476e-11
4.17444e-11
7.23865e-11
2.17604e-11
-1.35181e-09
-1.5099e-11
-1.02141e-11
-1.37668e-11
-5.06262e-11
-3.28626e-11
-1.28786e-11
-1.14131e-10
-1.33227e-11
-3.90799e-11
-1.32205e-09
-1.5099e-11
-2.62013e-11
-1.90958e-11
-6.4837e-11
-7.01661e-11
-5.41789e-11
-1.47438e-10
-1.59872e-11
-3.9968e-11
1.02141e-11
9.32587e-12
1.33227e-12
2.70894e-11
4.44089e-13
1.59872e-11
-1.64313e-11
1.95399e-11
-1.59872e-11
6.66134e-12
-2.88658e-11
0
7.99361e-12
2.66454e-11
6.43929e-11
5.10703e-11
1.82077e-11
-1.33227e-11
1.77636e-11
3.77476e-11
-8.88178e-12
-9.32587e-12
-2.22045e-11
-2.70894e-11
3.86358e-11
1.59872e-11
2.44249e-11
-1.46549e-11
1.11022e-11
-3.68594e-11
-1.19904e-11
3.33067e-11
2.88658e-11
-2.66454e-11
0
1.02141e-11
0
0
8.88178e-13
0
2.22045e-11
9.32587e-12
3.5083e-11
3.24185e-11
-4.92939e-11
-6.17284e-11
-3.55271e-12
-4.44089e-13
8.43769e-12
5.72875e-11
1.11022e-11
4.88498e-12
-4.26326e-11
3.10862e-11
-1.15463e-11
-1.02141e-11
0
5.86198e-11
-5.59552e-11
-5.59552e-11
1.32649e-09
1.36602e-09
3.15303e-11
-1.82077e-11
6.12843e-11
5.86198e-11
1.0969e-10
-3.55271e-12
1.28786e-11
1.28786e-11
1.35092e-09
1.33715e-09
6.70575e-11
-1.24345e-11
1.19904e-11
1.55431e-11
1.37224e-10
-1.15463e-11
5.72875e-11
5.72875e-11
-1.3296e-09
-1.64313e-11
-5.32907e-12
-1.95399e-11
-5.9952e-11
-5.06262e-11
-2.17604e-11
-1.0969e-10
-1.34115e-10
-4.17444e-11
-1.36291e-09
-3.55271e-11
-5.77316e-12
-5.86198e-11
-6.08402e-11
1.82077e-11
-5.9508e-11
-1.55431e-10
-1.65201e-10
-5.37348e-11
2.08722e-11
3.68594e-11
5.77316e-12
-2.66454e-11
1.90958e-11
0
1.95399e-11
-3.73035e-11
-3.15303e-11
2.44249e-11
0
0
0
3.73035e-11
4.44089e-13
-6.88338e-11
-1.19904e-11
3.86358e-11
0
0
-5.4623e-11
-5.68434e-11
-5.77316e-12
6.21725e-12
-1.86517e-11
0
-5.63993e-11
4.04121e-11
0
1.33227e-11
1.9984e-11
2.44249e-11
0
-3.68594e-11
-8.88178e-13
0
0
0
0
5.06262e-11
2.04281e-11
5.24025e-11
4.26326e-11
-2.9754e-11
0
3.01981e-11
3.86358e-11
-4.92939e-11
5.06262e-11
-5.06262e-11
4.84057e-11
3.9968e-11
0
1.24345e-11
0
0
1.28786e-11
1.5099e-11
0
0
1.33182e-09
1.3074e-09
-2.70894e-11
6.61693e-11
6.08402e-11
2.04281e-11
0
5.37348e-11
0
7.37188e-11
1.28475e-09
1.29496e-09
1.5099e-11
4.30767e-11
5.9952e-11
5.06262e-11
3.77476e-11
1.33227e-12
5.06262e-11
2.17604e-11
-1.34026e-09
-1.46549e-11
-1.24345e-11
-1.68754e-11
-5.9952e-11
-2.17604e-11
-1.64757e-10
-8.88178e-13
-9.54792e-11
-4.17444e-11
-1.31983e-09
9.32587e-12
1.06581e-11
-7.10543e-11
-6.08402e-11
-7.37188e-11
-1.65201e-10
-5.32907e-12
-1.65201e-10
-7.28306e-11
8.88178e-12
4.30767e-11
-3.10862e-11
-2.08722e-11
7.10543e-12
1.90958e-11
6.08402e-11
0
-6.92779e-11
3.01981e-11
-3.77476e-11
-3.68594e-11
0
3.4639e-11
4.44089e-13
-8.88178e-13
4.79616e-11
1.55431e-11
4.79616e-11
0
1.06581e-11
-1.9984e-11
4.44089e-13
3.01981e-11
-6.66134e-12
-6.88338e-11
-4.79616e-11
-4.44089e-12
0
-1.02141e-11
0
4.44089e-13
-4.88498e-11
-1.90958e-11
6.66134e-12
6.08402e-11
-4.84057e-11
-3.81917e-11
2.66454e-12
5.01821e-11
-3.4639e-11
3.9968e-12
2.04281e-11
-1.86517e-11
1.86517e-11
5.28466e-11
2.44249e-11
-4.08562e-11
3.68594e-11
-1.95399e-11
6.83897e-11
6.52811e-11
-4.88498e-12
-1.59872e-11
-7.10543e-12
-1.02141e-11
3.06422e-11
0
1.02141e-11
-3.86358e-11
1.39e-09
1.32916e-09
3.10862e-11
-2.62013e-11
4.08562e-11
-2.22045e-12
1.28342e-10
5.37348e-11
1.28342e-10
3.73035e-11
1.32694e-09
1.30562e-09
5.24025e-11
1.95399e-11
5.9508e-11
0
1.35003e-10
3.59712e-11
1.04805e-10
5.50671e-11
-1.3376e-09
6.21725e-12
-5.32907e-12
2.30926e-11
-4.88498e-11
-5.10703e-11
-8.92619e-11
-1.55431e-11
-2.66454e-12
-5.06262e-11
-1.3336e-09
-5.32907e-12
-2.9754e-11
-2.04281e-11
-6.70575e-11
-3.86358e-11
-1.42109e-10
-6.08402e-11
-5.55112e-11
0
-1.11022e-11
-7.10543e-12
-2.39808e-11
-3.15303e-11
8.88178e-13
6.17284e-11
-3.5083e-11
-3.73035e-11
3.10862e-12
6.83897e-11
3.10862e-11
2.79776e-11
8.88178e-13
3.73035e-11
0
-8.88178e-13
-1.24345e-11
3.86358e-11
-4.44089e-13
0
4.57412e-11
-3.5083e-11
-5.32907e-12
1.86517e-11
-1.82077e-11
-4.79616e-11
2.04281e-11
1.64313e-11
-3.77476e-11
-3.73035e-11
-1.02141e-11
-4.88498e-12
-8.88178e-13
-3.68594e-11
-8.88178e-13
3.86358e-11
0
-3.81917e-11
-1.24345e-11
4.44089e-13
-9.76996e-12
5.19584e-11
4.26326e-11
-2.22045e-12
7.10543e-12
1.73195e-11
-3.86358e-11
-2.4869e-11
2.04281e-11
1.90958e-11
7.99361e-12
-2.62013e-11
4.44089e-13
0
4.44089e-13
8.88178e-13
5.15143e-11
3.64153e-11
1.28786e-11
-1.90958e-11
1.3336e-09
1.33804e-09
-2.26485e-11
2.66454e-11
5.28466e-11
1.95399e-11
3.77476e-11
5.37348e-11
2.17604e-11
2.22045e-11
1.32694e-09
1.36202e-09
1.46549e-11
5.50671e-11
6.03961e-11
0
0
1.77636e-11
6.08402e-11
4.17444e-11
-1.32605e-09
-2.04281e-11
-4.04121e-11
-3.28626e-11
-5.63993e-11
3.9968e-12
-1.02141e-10
-1.02141e-10
-1.55431e-11
-1.02141e-10
-1.34959e-09
-4.88498e-11
2.22045e-12
-2.39808e-11
-5.37348e-11
1.42109e-11
-1.36779e-10
-1.10134e-10
-6.08402e-11
-1.54987e-10
-1.82077e-11
-3.9968e-12
2.70894e-11
2.88658e-11
-5.32907e-11
-5.10703e-11
-5.86198e-11
-5.32907e-11
-3.73035e-11
-5.86198e-11
0
2.84217e-11
-7.10543e-12
-3.19744e-11
-3.9968e-12
-7.10543e-12
-1.82077e-11
-4.57412e-11
5.28466e-11
1.82077e-11
-4.44089e-12
3.9968e-12
2.44249e-11
-6.17284e-11
6.26166e-11
4.61853e-11
2.35367e-11
0
1.02141e-11
2.35367e-11
-3.06422e-11
0
-3.68594e-11
3.24185e-11
-5.28466e-11
-2.44249e-11
0
0
-1.64313e-11
0
2.66454e-11
1.02141e-11
-2.39808e-11
7.99361e-12
-6.08402e-11
-4.08562e-11
-1.82077e-11
5.59552e-11
-1.82077e-11
-7.10543e-12
3.41949e-11
4.44089e-12
0
0
0
0
3.77476e-11
0
-3.64153e-11
-3.06422e-11
1.28964e-09
1.31362e-09
-2.08722e-11
1.9984e-11
5.01821e-11
5.4623e-11
3.90799e-11
-6.21725e-12
1.53211e-10
3.06422e-11
1.3114e-09
1.3185e-09
1.02141e-11
-1.28786e-11
5.19584e-11
2.88658e-11
0
4.9738e-11
1.53211e-10
5.41789e-11
-1.31628e-09
-1.73195e-11
-1.02141e-11
2.35367e-11
-4.88498e-11
-9.68114e-11
-8.88178e-11
-1.55431e-11
-1.31894e-10
-4.9738e-11
-1.29008e-09
3.28626e-11
-6.57252e-11
-3.37508e-11
-6.70575e-11
-1.65201e-10
-1.42109e-10
-6.08402e-11
-1.54099e-10
-5.06262e-11
-1.73195e-11
2.4869e-11
-2.53131e-11
-3.19744e-11
5.37348e-11
-6.9722e-11
2.66454e-12
0
-1.06581e-11
3.68594e-11
-4.13003e-11
-3.73035e-11
8.88178e-13
3.19744e-11
0
0
3.64153e-11
3.81917e-11
4.88498e-11
0
4.21885e-11
2.44249e-11
-3.15303e-11
-2.79776e-11
-7.19425e-11
5.06262e-11
-1.68754e-11
-2.04281e-11
0
-6.21725e-12
2.66454e-12
3.19744e-11
5.77316e-12
1.86517e-11
7.54952e-12
3.01981e-11
-4.88498e-11
0
-3.64153e-11
5.06262e-11
-1.82077e-11
-1.82077e-11
4.44089e-12
1.24345e-11
1.82077e-11
-1.9984e-11
-2.66454e-12
-2.53131e-11
4.88498e-11
3.77476e-11
3.37508e-11
3.9968e-12
-5.32907e-12
-1.64313e-11
-7.54952e-12
-1.82077e-11
1.28786e-11
1.06581e-11
2.44249e-11
-5.01821e-11
1.3034e-09
1.31184e-09
4.75175e-11
3.86358e-11
4.17444e-11
4.26326e-11
1.16795e-10
6.12843e-11
1.02141e-11
-1.33227e-12
1.28964e-09
1.2963e-09
5.24025e-11
1.55431e-11
5.9508e-11
6.08402e-11
1.53211e-10
1.19904e-11
3.41949e-11
6.75016e-11
5.06262e-11
2.17604e-11
-1.28786e-11
-3.28626e-11
-1.64313e-11
-9.50351e-11
-1.86517e-11
-9.50351e-11
-2.17604e-11
-3.10862e-12
2.70894e-11
-3.06422e-11
-1.82077e-11
-2.57572e-11
-1.9984e-11
-1.1724e-10
-1.90958e-11
-1.17684e-10
1.77636e-12
-2.22045e-11
3.28626e-11
-4.13003e-11
1.42109e-11
-2.26485e-11
5.63993e-11
-2.22045e-11
1.13687e-10
-1.42109e-11
2.17604e-11
0
8.88178e-13
0
0
-3.10862e-11
-8.88178e-13
0
-3.9968e-12
0
0
0
-1.5099e-11
0
-1.90958e-11
-4.88498e-12
-4.70735e-11
0
-1.16795e-10
7.54952e-12
-1.86517e-11
-2.22045e-12
2.13163e-11
-3.55271e-12
0
3.19744e-11
1.9984e-11
1.73195e-11
2.30926e-11
2.26485e-11
-5.77316e-12
0
6.21725e-12
3.64153e-11
4.88498e-12
2.13163e-11
8.43769e-12
1.5099e-11
1.5099e-11
-4.44089e-12
1.95399e-11
-1.37668e-11
-2.17604e-11
3.95239e-11
0
9.32587e-12
-7.99361e-12
0
-2.22045e-11
9.28146e-11
2.66454e-12
1.68754e-11
1.23768e-09
1.3558e-09
5.37348e-11
2.22045e-12
-7.99361e-12
1.03029e-10
5.32907e-12
1.11022e-11
9.54792e-11
1.15463e-10
1.28653e-09
1.36646e-09
5.86198e-11
-1.95399e-11
8.88178e-13
1.00808e-10
2.13163e-11
-9.23706e-11
9.81437e-11
1.01252e-10
-9.23706e-11
-1.05249e-10
-9.4591e-11
-9.50351e-11
-9.76996e-11
3.9968e-12
-1.05249e-10
-9.23706e-11
-9.50351e-11
-3.77476e-11
-9.01501e-11
-9.81437e-11
-9.54792e-11
-9.50351e-11
-9.9476e-11
0
-1.0747e-10
-9.37028e-11
-9.50351e-11
-1.01252e-10
1.77636e-12
7.99361e-12
9.28146e-11
4.44089e-13
9.28146e-11
-1.13243e-10
1.01252e-10
1.77636e-12
4.44089e-13
-6.30607e-11
-1.77636e-12
8.34888e-11
8.88178e-13
-4.44089e-12
9.81437e-11
-9.14824e-11
5.77316e-12
1.77636e-12
0
9.54792e-11
-1.95399e-11
-2.22045e-12
3.9968e-12
0
-9.37028e-11
1.0969e-10
-1.03029e-10
9.41469e-11
-4.44089e-13
0
9.81437e-11
-8.65974e-11
0
-4.44089e-13
-9.63674e-11
0
0
0
4.44089e-13
0
1.33227e-11
-1.68754e-11
-1.05693e-10
9.32587e-11
2.22045e-12
3.9968e-12
-8.43769e-12
-9.4591e-11
-1.82077e-11
4.44089e-12
-1.02141e-10
9.76996e-11
0
9.72555e-11
9.72555e-11
9.10383e-11
9.01501e-11
0
-4.88498e-12
0
1.01696e-10
1.14131e-10
1.08358e-10
2.22045e-12
9.68114e-11
4.44089e-13
1.13243e-10
9.72555e-11
1.90958e-11
9.50351e-11
1.03473e-10
3.55271e-12
9.81437e-11
1.77636e-12
1.33227e-12
4.44089e-12
9.32587e-12
9.81437e-11
4.88498e-12
3.9968e-12
-6.43929e-11
-4.44089e-12
-3.01981e-11
-9.23706e-11
-1.82077e-11
-1.01696e-10
5.32907e-12
-1.82077e-11
4.44089e-13
-6.83897e-11
-4.08562e-11
-6.4837e-11
-1.77636e-11
-1.58984e-10
-1.82077e-11
-9.63674e-11
1.33227e-11
-1.82077e-11
-6.52811e-11
-5.9952e-11
0
-5.90639e-11
-4.88498e-12
-7.23865e-11
-1.59872e-11
-7.99361e-12
6.21725e-12
3.9968e-12
-2.70894e-11
-2.62013e-11
0
4.84057e-11
4.44089e-13
1.64313e-11
-4.13003e-11
-8.88178e-13
-4.39648e-11
0
3.90799e-11
0
4.61853e-11
3.10862e-11
1.64313e-11
5.90639e-11
3.33067e-11
1.37668e-11
-2.44249e-11
-3.9968e-12
-4.61853e-11
3.33067e-11
0
-4.88498e-11
0
1.77636e-11
4.52971e-11
-8.88178e-13
1.77636e-11
1.73195e-11
1.37668e-11
-3.41949e-11
1.24345e-11
-1.86517e-11
-1.24345e-11
9.76996e-12
-4.88498e-12
8.88178e-13
-2.84217e-11
1.24345e-11
1.24345e-11
-4.88498e-12
2.26485e-11
3.10862e-11
4.44089e-13
1.86517e-11
1.33227e-11
4.44089e-13
-4.44089e-13
0
-5.90639e-11
3.41949e-11
8.88178e-13
5.90639e-11
1.27454e-10
-6.66134e-12
6.66134e-12
-1.33227e-12
5.06262e-11
1.02585e-10
6.03961e-11
9.76996e-11
1.28786e-11
3.9968e-11
1.15463e-10
3.10862e-12
2.22045e-12
-8.88178e-13
2.13163e-11
9.85878e-11
7.19425e-11
9.32587e-11
-3.10862e-12
-3.9968e-11
-1.73195e-11
-6.52811e-11
-9.85878e-11
3.10862e-12
-1.19904e-10
-1.73195e-11
-7.28306e-11
-9.32587e-11
-4.88498e-12
-2.9754e-11
-6.26166e-11
-1.37668e-11
-1.38112e-10
-3.77476e-11
-1.48326e-10
-3.9968e-12
-1.28786e-11
-1.33227e-10
-6.30607e-11
3.37508e-11
-1.19904e-11
3.90799e-11
-4.44089e-12
-1.77636e-11
2.39808e-11
0
4.57412e-11
-5.77316e-11
-7.10543e-12
1.77636e-11
4.88498e-12
0
-1.82077e-11
-1.82077e-11
4.61853e-11
-5.32907e-11
0
-1.82077e-11
6.26166e-11
-5.77316e-11
-3.9968e-12
1.86517e-11
-2.88658e-11
-2.26485e-11
-5.77316e-11
1.68754e-11
-3.90799e-11
2.44249e-11
-3.01981e-11
-3.68594e-11
1.82077e-11
-3.59712e-11
4.44089e-13
1.82077e-11
0
1.82077e-11
-3.68594e-11
4.44089e-13
-1.28786e-11
4.44089e-11
-2.44249e-11
-6.66134e-12
1.9984e-11
-1.82077e-11
3.90799e-11
-4.66294e-11
6.26166e-11
2.04281e-11
0
4.26326e-11
0
-2.17604e-11
0
-3.06422e-11
-2.84217e-11
0
4.26326e-11
1.82077e-11
-3.55271e-12
0
4.17444e-11
-7.99361e-12
1.59872e-11
4.17444e-11
5.32907e-12
3.06422e-11
-1.82077e-11
1.55431e-11
2.39808e-11
-1.42109e-11
2.35367e-11
5.06262e-11
6.08402e-11
5.41789e-11
1.9984e-11
2.35367e-11
-1.42109e-11
4.26326e-11
-1.5099e-11
-7.32747e-11
-3.10862e-11
-7.32747e-11
-3.06422e-11
-6.57252e-11
-1.00808e-10
-4.44089e-13
-6.66134e-11
3.55271e-12
-1.9984e-11
-5.01821e-11
-2.75335e-11
-2.66454e-11
-2.66454e-12
-1.9984e-11
-1.05693e-10
-1.9984e-11
0
-5.77316e-12
-2.17604e-11
4.84057e-11
-1.24345e-11
6.4837e-11
0
1.64313e-11
-1.90958e-11
-4.88498e-11
4.17444e-11
1.77636e-12
-4.61853e-11
-1.59872e-11
-3.41949e-11
1.90958e-11
-7.99361e-12
-4.61853e-11
-5.9952e-11
-4.61853e-11
-6.61693e-11
9.76996e-12
-5.32907e-12
-4.84057e-11
-3.10862e-12
-1.42109e-11
2.88658e-11
2.9754e-11
2.39808e-11
2.9754e-11
1.06581e-11
-7.10543e-12
0
5.86198e-11
0
-1.68754e-11
0
5.06262e-11
1.19904e-11
5.06262e-11
5.86198e-11
-1.5099e-11
3.5083e-11
3.64153e-11
5.19584e-11
-1.33227e-11
-8.43769e-12
-2.9754e-11
-5.68434e-11
-4.08562e-11
-4.70735e-11
-4.21885e-11
2.9754e-11
-3.41949e-11
2.93099e-11
2.04281e-11
-2.17604e-11
0
4.70735e-11
-5.06262e-11
7.54952e-12
-2.08722e-11
-1.15463e-11
3.59712e-11
-1.82077e-11
2.75335e-11
1.59872e-11
4.9738e-11
1.53211e-10
6.08402e-11
5.9952e-11
1.43441e-10
1.68754e-11
4.13003e-11
1.73195e-11
-4.44089e-12
3.68594e-11
1.5099e-11
1.06137e-10
6.57252e-11
0
1.3145e-10
-1.33227e-11
1.90958e-11
-1.33227e-12
-5.01821e-11
-1.33227e-12
-9.32587e-11
-1.15463e-10
-1.33227e-12
-6.03961e-11
-1.2701e-10
-5.37348e-11
2.13163e-11
-3.4639e-11
-1.37668e-11
-5.90639e-11
-1.51434e-10
-1.36779e-10
-6.39488e-11
-1.37668e-11
-1.50546e-10
4.44089e-12
-6.17284e-11
3.10862e-12
4.52971e-11
-4.9738e-11
-6.35048e-11
-3.86358e-11
-6.30607e-11
2.93099e-11
-2.4869e-11
3.81917e-11
-1.37668e-11
1.28786e-11
0
3.86358e-11
3.86358e-11
3.5083e-11
-7.54952e-12
0
3.77476e-11
-2.66454e-11
1.59872e-11
-3.9968e-12
1.33227e-12
4.75175e-11
4.13003e-11
5.86198e-11
2.35367e-11
-1.82077e-11
5.63993e-11
0
5.77316e-12
0
6.66134e-12
-3.86358e-11
-3.86358e-11
5.77316e-12
5.10703e-11
5.77316e-12
-3.86358e-11
-1.90958e-11
-1.02141e-11
-5.63993e-11
-3.9968e-12
-1.06581e-11
-3.59712e-11
-1.95399e-11
3.68594e-11
2.57572e-11
-1.02141e-11
1.90958e-11
-3.41949e-11
1.90958e-11
-6.57252e-11
5.68434e-11
4.61853e-11
-3.41949e-11
1.86517e-11
-3.37508e-11
5.68434e-11
6.08402e-11
5.59552e-11
5.37348e-11
3.55271e-12
8.88178e-12
1.55431e-10
2.26485e-11
5.32907e-12
1.95399e-11
8.43769e-12
3.9968e-12
3.73035e-11
-2.66454e-12
6.83897e-11
-2.66454e-12
1.08358e-10
3.73035e-11
3.9968e-12
3.73035e-11
-2.66454e-12
6.66134e-12
-1.33227e-12
-9.72555e-11
-1.64313e-11
1.77636e-12
-9.76996e-11
-3.90799e-11
-9.72555e-11
-3.55271e-12
-1.42109e-11
-8.88178e-13
-6.4837e-11
-1.14575e-10
-5.59552e-11
-6.30607e-11
-1.07025e-10
-5.01821e-11
-9.63674e-11
-6.57252e-11
8.88178e-13
-7.54952e-12
-9.76996e-12
-4.9738e-11
-4.57412e-11
-6.35048e-11
-4.44089e-12
7.54952e-12
-1.73195e-11
-9.76996e-12
-3.01981e-11
1.55431e-11
5.24025e-11
1.24345e-11
5.55112e-11
3.01981e-11
-4.84057e-11
4.70735e-11
-4.04121e-11
5.24025e-11
-3.77476e-11
-4.61853e-11
-1.37668e-11
5.24025e-11
6.70575e-11
2.93099e-11
-3.55271e-11
-2.44249e-11
-4.61853e-11
-1.33227e-11
1.33227e-11
-3.81917e-11
6.21725e-12
-7.99361e-12
5.32907e-12
3.10862e-11
0
5.77316e-12
0
5.77316e-12
2.04281e-11
5.32907e-12
2.35367e-11
-5.24025e-11
-1.86517e-11
-2.4869e-11
-1.77636e-11
6.08402e-11
6.03961e-11
1.95399e-11
2.84217e-11
6.21725e-12
0
-2.08722e-11
-2.17604e-11
-3.73035e-11
0
0
6.66134e-12
0
-1.9984e-11
5.37348e-11
3.10862e-12
1.46994e-10
1.06581e-11
1.54987e-10
4.17444e-11
-1.64313e-11
-8.88178e-13
-1.42109e-11
-1.15463e-11
2.9754e-11
7.54952e-12
1.31006e-10
1.33227e-11
1.37224e-10
4.17444e-11
-1.42109e-11
2.88658e-11
-1.42109e-11
2.35367e-11
3.9968e-12
-1.15463e-11
-1.82077e-11
-2.66454e-11
-9.72555e-11
-9.37028e-11
-3.90799e-11
-1.82077e-11
-3.55271e-12
-1.42109e-11
-5.32907e-12
-6.66134e-12
-4.08562e-11
-2.39808e-11
-1.00364e-10
-1.15019e-10
4.88498e-12
-1.37668e-11
-7.10543e-12
8.88178e-13
-5.77316e-11
-4.61853e-11
4.44089e-12
2.66454e-12
-4.88498e-12
-1.24345e-11
2.53131e-11
-4.57412e-11
-5.68434e-11
-4.61853e-11
-4.88498e-11
-4.26326e-11
2.26485e-11
-2.4869e-11
-3.19744e-11
2.04281e-11
-2.66454e-12
-7.10543e-12
-4.26326e-11
-3.81917e-11
2.44249e-11
1.86517e-11
-2.08722e-11
-7.99361e-12
-4.4853e-11
-5.72875e-11
-1.73195e-11
0
2.84217e-11
6.30607e-11
0
8.43769e-12
-4.66294e-11
1.77636e-11
0
-6.9722e-11
-3.41949e-11
-3.86358e-11
8.88178e-12
0
-2.44249e-11
5.77316e-12
-1.59872e-11
-3.9968e-12
-8.43769e-12
1.19904e-11
3.41949e-11
6.03961e-11
1.95399e-11
-4.44089e-12
5.68434e-11
3.86358e-11
3.01981e-11
4.44089e-12
-6.21725e-12
6.57252e-11
1.73195e-11
0
1.46549e-11
1.9984e-11
5.37348e-11
3.5083e-11
5.24025e-11
3.59712e-11
4.13003e-11
4.17444e-11
7.54952e-12
-1.33227e-12
1.19904e-11
1.01696e-10
-2.66454e-12
3.55271e-12
3.64153e-11
2.66454e-11
2.39808e-11
-1.11022e-11
2.39808e-11
5.41789e-11
2.66454e-11
1.1724e-10
-2.66454e-12
-5.32907e-12
-8.34888e-11
-5.06262e-11
0
-9.76996e-11
-5.32907e-12
-6.66134e-12
-3.59712e-11
0
-1.06581e-11
-6.66134e-11
-9.9476e-11
-4.88498e-12
-1.42109e-11
-9.10383e-11
4.44089e-13
-4.88498e-11
-8.88178e-13
-1.37668e-11
0
-2.35367e-11
0
3.73035e-11
1.77636e-12
-4.21885e-11
-4.79616e-11
-4.21885e-11
-1.82077e-11
-7.99361e-12
-4.52971e-11
5.06262e-11
-3.73035e-11
-4.57412e-11
-4.57412e-11
-1.55431e-11
-2.62013e-11
4.75175e-11
-3.5083e-11
7.99361e-12
7.10543e-12
3.24185e-11
-1.46549e-11
2.84217e-11
4.44089e-13
0
1.06581e-11
-4.44089e-13
5.32907e-11
-5.55112e-11
-4.44089e-13
-2.08722e-11
0
3.01981e-11
-4.44089e-13
-3.33067e-11
1.82077e-11
0
3.95239e-11
-7.99361e-12
-6.03961e-11
-2.04281e-11
5.32907e-12
-5.32907e-11
-2.53131e-11
3.90799e-11
-1.15463e-11
4.88498e-11
-5.28466e-11
3.95239e-11
6.03961e-11
2.04281e-11
3.73035e-11
8.88178e-13
6.03961e-11
4.44089e-11
-1.77636e-11
-4.70735e-11
-3.90799e-11
-5.10703e-11
5.01821e-11
1.77636e-12
1.04805e-10
3.86358e-11
8.43769e-11
1.04805e-10
5.59552e-11
9.50351e-11
5.37348e-11
1.21236e-10
-1.11022e-11
0
1.0969e-10
1.90958e-11
5.86198e-11
9.9476e-11
2.75335e-11
1.43885e-10
3.55271e-11
1.60316e-10
-1.33227e-11
-9.59233e-11
-1.82077e-11
-4.57412e-11
-1.02585e-10
-9.37028e-11
-1.33227e-11
-1.82077e-11
-5.63993e-11
-3.06422e-11
-3.55271e-11
-1.58984e-10
-4.08562e-11
-3.10862e-12
-1.38112e-10
-1.63869e-10
-4.66294e-11
-1.37668e-11
-6.12843e-11
-3.73035e-11
-4.08562e-11
-6.88338e-11
-4.61853e-11
4.66294e-11
0
-1.24345e-11
2.26485e-11
-4.57412e-11
3.86358e-11
-2.9754e-11
-1.82077e-11
5.24025e-11
-2.30926e-11
-3.10862e-12
3.81917e-11
4.88498e-11
4.66294e-11
-7.10543e-12
5.19584e-11
2.04281e-11
2.44249e-11
4.52971e-11
2.88658e-11
-5.68434e-11
-2.93099e-11
-7.10543e-12
-2.30926e-11
0
5.77316e-12
5.37348e-11
-1.19904e-11
6.21725e-12
4.66294e-11
5.77316e-12
-6.79456e-11
2.08722e-11
6.21725e-12
-5.10703e-11
6.21725e-12
-1.9984e-11
-2.4869e-11
-4.52971e-11
-1.64313e-11
-1.24345e-11
-1.37668e-11
-3.86358e-11
-4.44089e-12
6.08402e-11
-2.53131e-11
-2.44249e-11
1.24345e-11
-8.88178e-13
4.44089e-12
-8.88178e-13
1.24345e-11
-6.9722e-11
0
3.68594e-11
2.22045e-12
-3.06422e-11
3.77476e-11
7.28306e-11
5.10703e-11
5.9508e-11
4.9738e-11
1.53655e-10
9.76996e-12
-1.68754e-11
1.9984e-11
3.10862e-11
3.90799e-11
7.54952e-12
1.37668e-11
-7.99361e-12
6.08402e-11
1.65201e-10
-1.42109e-11
1.37668e-11
-1.64313e-11
6.75016e-11
9.54792e-11
9.23706e-11
-9.85878e-11
-8.43769e-12
-5.77316e-12
4.44089e-13
-9.4591e-11
-9.85878e-11
-1.90958e-11
-9.54792e-11
-1.95399e-11
8.17124e-11
-1.15907e-10
-2.22045e-11
-1.15907e-10
-2.22045e-12
-6.21725e-12
-1.15907e-10
8.17124e-11
-1.13687e-10
-9.50351e-11
-9.41469e-11
2.22045e-12
-4.44089e-13
-1.09246e-10
-9.50351e-11
-7.99361e-12
-1.68754e-11
1.11022e-10
-8.88178e-13
-3.9968e-12
0
1.55431e-11
1.11022e-10
1.24345e-11
-9.81437e-11
-7.10543e-12
-3.55271e-12
0
-3.55271e-12
-6.66134e-12
-3.55271e-12
9.41469e-11
3.10862e-12
1.13243e-10
9.23706e-11
1.00808e-10
1.73195e-11
-9.68114e-11
-1.59872e-11
0
1.06581e-11
1.77636e-12
4.88498e-12
-1.24345e-11
9.76996e-11
-8.65974e-11
0
1.11022e-11
1.16795e-10
-4.44089e-12
-1.33227e-11
0
-1.42109e-11
0
-3.4639e-11
-9.32587e-11
8.88178e-13
2.66454e-12
4.44089e-13
1.15463e-10
-1.15019e-10
9.63674e-11
-1.15019e-10
1.55431e-11
-9.19265e-11
-1.68754e-11
2.26485e-11
-1.15019e-10
-1.13687e-10
1.11022e-11
1.13687e-10
-9.50351e-11
1.1191e-10
8.88178e-13
-5.90639e-11
8.88178e-13
8.88178e-13
9.68114e-11
1.13687e-10
-9.23706e-11
1.16351e-10
-9.54792e-11
1.14131e-10
9.81437e-11
-1.33227e-12
2.22045e-11
0
1.16351e-10
1.14131e-10
-9.23706e-11
-9.23706e-11
-9.81437e-11
-9.23706e-11
-9.23706e-11
-9.68114e-11
-9.23706e-11
-9.59233e-11
-9.23706e-11
9.19265e-11
-9.19265e-11
-9.01501e-11
-9.32587e-11
-9.19265e-11
-9.19265e-11
-9.37028e-11
-9.19265e-11
-1.07025e-10
-9.19265e-11
9.28146e-11
1.77636e-12
1.77636e-12
1.33227e-12
-1.68754e-11
-1.68754e-11
9.81437e-11
-1.68754e-11
9.81437e-11
-1.77636e-11
5.77316e-12
0
9.54792e-11
0
9.72555e-11
9.72555e-11
9.72555e-11
9.72555e-11
7.54952e-12
9.81437e-11
6.21725e-12
-1.77636e-12
-2.26485e-11
4.44089e-12
1.14131e-10
1.14131e-10
1.33227e-12
1.14131e-10
-1.90958e-11
1.14131e-10
4.44089e-13
0
-9.85878e-11
-9.76996e-12
-9.90319e-11
-9.90319e-11
0
-9.90319e-11
1.02141e-10
-1.02585e-10
-1.77636e-12
-1.24345e-11
2.13163e-11
-8.88178e-13
-9.81437e-11
-1.19904e-11
-1.0969e-10
-9.81437e-11
-7.68274e-11
-1.00364e-10
-1.77636e-12
0
-1.9984e-11
2.22045e-12
9.81437e-11
9.90319e-11
-4.44089e-13
9.81437e-11
4.44089e-13
1.02141e-10
1.77636e-12
1.11022e-10
9.23706e-11
9.68114e-11
9.99201e-11
1.28786e-11
1.11022e-10
9.99201e-11
-1.33227e-12
1.01696e-10
-9.72555e-11
9.81437e-11
1.12799e-10
1.04361e-10
1.33227e-12
1.33227e-12
1.33227e-12
1.33227e-12
-9.59233e-11
1.33227e-12
-9.81437e-11
-6.4837e-11
-1.77636e-11
-3.01981e-11
-1.82077e-11
-1.77636e-11
-2.88658e-11
-1.82077e-11
-3.33067e-11
-5.90639e-11
4.44089e-12
-8.88178e-13
-7.14984e-11
-2.22045e-11
-3.4639e-11
-3.37508e-11
1.33227e-12
-3.4639e-11
-5.10703e-11
-3.41949e-11
-9.37028e-11
5.06262e-11
4.44089e-12
4.44089e-12
4.44089e-12
3.55271e-12
1.68754e-11
7.99361e-12
-5.32907e-12
4.84057e-11
-1.08802e-10
-3.37508e-11
4.88498e-11
0
8.88178e-13
0
0
0
1.11022e-11
0
-6.21725e-12
-3.9968e-12
-4.44089e-12
2.13163e-11
-4.44089e-12
-3.55271e-12
1.28786e-11
-7.10543e-12
3.5083e-11
9.32587e-12
1.0969e-10
1.59872e-11
1.77636e-12
-2.35367e-11
1.55431e-11
1.55431e-11
0
1.55431e-11
3.95239e-11
1.64313e-11
1.02585e-10
1.46549e-11
0
-1.64313e-11
1.82077e-11
1.77636e-11
-4.66294e-11
1.73195e-11
-2.04281e-11
8.88178e-13
-5.32907e-12
1.73195e-11
2.66454e-12
1.33227e-12
-4.44089e-13
0
0
0
1.77636e-12
-4.44089e-13
-9.41469e-11
9.9476e-11
1.5099e-11
1.68754e-11
-4.44089e-12
-4.44089e-12
4.26326e-11
-3.9968e-12
5.32907e-12
-4.44089e-12
4.88498e-12
9.72555e-11
1.42109e-11
3.86358e-11
1.28786e-11
1.28786e-11
-3.9968e-12
1.28786e-11
-2.04281e-11
1.28786e-11
9.72555e-11
-3.33067e-11
1.95399e-11
-6.03961e-11
-3.33067e-11
-9.85878e-11
-3.33067e-11
-3.33067e-11
7.10543e-12
-3.33067e-11
4.88498e-12
-1.77636e-12
-2.04281e-11
-4.44089e-13
-4.44089e-13
-1.38112e-10
-4.9738e-11
-3.95239e-11
1.33227e-11
-3.95239e-11
-9.72555e-11
-2.93099e-11
-1.68754e-11
2.44249e-11
-3.01981e-11
-1.68754e-11
3.10862e-12
-2.9754e-11
-2.93099e-11
-2.44249e-11
-1.24345e-11
-5.63993e-11
-1.82077e-11
0
-5.68434e-11
-1.82077e-11
-7.10543e-12
-1.82077e-11
0
-1.82077e-11
-1.19904e-11
2.9754e-11
-1.64313e-11
3.37508e-11
2.9754e-11
-1.64313e-11
-3.9968e-12
2.9754e-11
-1.28786e-11
5.77316e-11
-8.61533e-11
4.88498e-11
4.44089e-13
1.33227e-12
4.88498e-11
4.44089e-13
1.82077e-11
4.88498e-11
1.33227e-12
4.84057e-11
0
2.79776e-11
-4.44089e-13
-6.43929e-11
3.41949e-11
-4.44089e-13
2.84217e-11
3.41949e-11
4.17444e-11
-3.33067e-11
-8.43769e-12
0
0
-8.88178e-13
0
0
0
0
-4.88498e-12
-3.10862e-11
0
-1.11022e-11
3.64153e-11
1.56319e-10
-1.73195e-11
3.64153e-11
-1.11022e-11
-1.73195e-11
9.76996e-11
1.82077e-11
1.07914e-10
-6.66134e-12
6.08402e-11
9.19265e-11
-6.66134e-12
6.08402e-11
2.35367e-11
-6.66134e-12
9.59233e-11
2.35367e-11
1.14575e-10
-1.5099e-11
3.55271e-12
-2.75335e-11
-1.5099e-11
3.55271e-12
-1.55431e-11
-1.19904e-11
-1.02585e-10
-1.19904e-11
-9.50351e-11
-1.9984e-11
3.9968e-12
3.10862e-12
-1.55431e-11
3.9968e-12
-3.24185e-11
-1.59872e-11
-9.81437e-11
-1.59872e-11
-4.44089e-13
-4.61853e-11
-2.08722e-11
-2.79776e-11
7.99361e-12
7.99361e-12
2.66454e-12
5.32907e-12
-6.66134e-12
5.32907e-12
9.41469e-11
-4.61853e-11
4.44089e-13
0
-5.06262e-11
0
1.77636e-11
-5.06262e-11
-2.66454e-12
-5.06262e-11
-9.41469e-11
5.9952e-11
2.79776e-11
9.76996e-12
-5.32907e-11
-8.43769e-12
-2.30926e-11
-2.57572e-11
-2.22045e-11
-5.32907e-11
-9.50351e-11
-4.44089e-13
-4.88498e-12
-3.01981e-11
6.30607e-11
-4.44089e-12
-5.06262e-11
6.39488e-11
-2.62013e-11
6.30607e-11
-1.77636e-12
1.33227e-12
-5.77316e-11
0
5.9952e-11
-1.06581e-11
-2.9754e-11
-9.76996e-12
3.4639e-11
5.9952e-11
0
3.37508e-11
1.19904e-11
-1.86517e-11
-5.77316e-11
3.9968e-12
0
-2.9754e-11
-4.44089e-12
-5.77316e-11
1.33227e-12
-1.82077e-11
6.57252e-11
1.40776e-10
-1.33227e-12
2.62013e-11
6.43929e-11
4.04121e-11
9.41469e-11
-1.33227e-12
9.54792e-11
1.28786e-11
7.99361e-12
1.4122e-10
5.90639e-11
1.59872e-11
6.39488e-11
3.06422e-11
1.2923e-10
5.90639e-11
9.54792e-11
-3.5083e-11
-3.55271e-12
-6.03961e-11
-3.5083e-11
-1.77636e-12
-3.5083e-11
-3.5083e-11
-5.37348e-11
-3.9968e-12
4.44089e-12
-5.90639e-11
-6.08402e-11
4.44089e-13
-5.77316e-12
-5.90639e-11
-1.77636e-11
-5.90639e-11
-8.88178e-13
-5.90639e-11
-1.0969e-10
-2.9754e-11
0
2.39808e-11
1.59872e-11
0
8.88178e-12
1.64313e-11
1.73195e-11
-5.55112e-11
-1.19904e-11
3.86358e-11
0
-3.10862e-11
-5.28466e-11
0
-2.22045e-12
0
-3.15303e-11
0
0
2.35367e-11
-9.76996e-12
-2.44249e-11
-2.30926e-11
-3.9968e-11
-1.55431e-11
-2.30926e-11
9.32587e-12
1.77636e-11
-8.9706e-11
-2.08722e-11
4.88498e-11
2.4869e-11
1.82077e-11
1.82077e-11
-2.08722e-11
1.82077e-11
2.4869e-11
1.82077e-11
1.86517e-11
3.5083e-11
7.54952e-12
4.66294e-11
5.77316e-12
3.81917e-11
3.5083e-11
5.77316e-12
-8.43769e-12
5.77316e-12
-7.54952e-12
1.77636e-11
-6.08402e-11
5.77316e-12
2.04281e-11
-3.06422e-11
3.86358e-11
2.04281e-11
1.77636e-12
2.04281e-11
-2.26485e-11
4.88498e-12
9.90319e-11
1.03917e-10
3.37508e-11
9.90319e-11
4.44089e-12
3.37508e-11
1.26121e-10
3.37508e-11
1.0969e-10
2.13163e-11
1.67422e-10
9.19265e-11
1.90958e-11
1.67422e-10
8.88178e-13
1.90958e-11
9.59233e-11
1.90958e-11
1.18572e-10
-9.68114e-11
-5.06262e-11
-1.42109e-11
8.88178e-13
-1.3145e-10
-1.68754e-11
8.88178e-13
-4.44089e-12
8.88178e-13
-1.08358e-10
-1.31006e-10
1.77636e-11
-8.88178e-13
0
-1.00808e-10
-3.28626e-11
0
1.77636e-12
0
-2.22045e-12
-1.19904e-11
6.66134e-12
6.21725e-12
-5.81757e-11
3.55271e-11
4.88498e-12
-1.73195e-11
-3.55271e-12
-5.81757e-11
1.05693e-10
3.15303e-11