/*--------------------------------*- C++ -*----------------------------------*\
  =========                 |
  \\      /  F ield         | OpenFOAM: The Open Source CFD Toolbox
   \\    /   O peration     | Website:  https://openfoam.org
    \\  /    A nd           | Version:  10
     \\/     M anipulation  |
\*---------------------------------------------------------------------------*/
FoamFile
{
    format      ascii;
    class       volScalarField;
    location    "19";
    object      gradTx;
}
// * * * * * * * * * * * * * * * * * * * * * * * * * * * * * * * * * * * * * //

dimensions      [0 -1 0 1 0 0 0];

internalField   nonuniform List<scalar> 
375000
(
-0.982301
-0.982255
-0.982162
-0.982022
-0.981836
-0.981604
-0.981326
-0.981001
-0.98063
-0.980213
-0.97975
-0.97924
-0.978684
-0.978082
-0.977434
-0.976739
-0.975999
-0.975212
-0.974379
-0.9735
-0.972576
-0.971605
-0.970588
-0.969525
-0.968417
-0.967263
-0.966063
-0.964818
-0.963526
-0.96219
-0.960808
-0.95938
-0.957907
-0.956389
-0.954826
-0.953218
-0.951565
-0.949867
-0.948124
-0.946337
-0.944505
-0.942628
-0.940707
-0.938741
-0.936731
-0.934677
-0.932579
-0.930437
-0.928251
-0.92602
-0.982306
-0.98226
-0.982167
-0.982028
-0.981843
-0.981611
-0.981332
-0.981007
-0.980636
-0.980218
-0.979754
-0.979244
-0.978687
-0.978084
-0.977435
-0.97674
-0.975998
-0.975211
-0.974377
-0.973498
-0.972572
-0.971601
-0.970584
-0.969521
-0.968412
-0.967258
-0.966058
-0.964813
-0.963522
-0.962186
-0.960804
-0.959377
-0.957904
-0.956387
-0.954824
-0.953216
-0.951564
-0.949866
-0.948123
-0.946336
-0.944504
-0.942627
-0.940706
-0.938741
-0.936731
-0.934677
-0.932579
-0.930437
-0.928251
-0.926021
-0.982302
-0.982255
-0.982162
-0.982023
-0.981838
-0.981606
-0.981328
-0.981003
-0.980632
-0.980215
-0.979752
-0.979242
-0.978686
-0.978083
-0.977435
-0.97674
-0.975999
-0.975212
-0.974379
-0.9735
-0.972575
-0.971604
-0.970587
-0.969525
-0.968416
-0.967262
-0.966062
-0.964816
-0.963525
-0.962188
-0.960806
-0.959379
-0.957906
-0.956388
-0.954825
-0.953217
-0.951564
-0.949866
-0.948123
-0.946336
-0.944504
-0.942628
-0.940707
-0.938741
-0.936731
-0.934678
-0.93258
-0.930438
-0.928251
-0.92602
-0.982307
-0.98226
-0.982168
-0.982028
-0.981843
-0.981611
-0.981332
-0.981007
-0.980636
-0.980218
-0.979754
-0.979244
-0.978687
-0.978084
-0.977435
-0.97674
-0.975998
-0.975211
-0.974377
-0.973498
-0.972572
-0.971601
-0.970584
-0.969521
-0.968412
-0.967258
-0.966058
-0.964813
-0.963522
-0.962186
-0.960804
-0.959377
-0.957904
-0.956387
-0.954824
-0.953216
-0.951564
-0.949866
-0.948124
-0.946336
-0.944504
-0.942628
-0.940707
-0.938741
-0.936732
-0.934678
-0.932579
-0.930437
-0.928252
-0.926021
-0.982304
-0.982257
-0.982165
-0.982025
-0.98184
-0.981608
-0.981329
-0.981005
-0.980634
-0.980216
-0.979753
-0.979243
-0.978686
-0.978084
-0.977435
-0.97674
-0.975999
-0.975212
-0.974379
-0.9735
-0.972575
-0.971604
-0.970587
-0.969524
-0.968416
-0.967262
-0.966062
-0.964816
-0.963525
-0.962188
-0.960806
-0.959379
-0.957906
-0.956388
-0.954825
-0.953217
-0.951564
-0.949866
-0.948123
-0.946336
-0.944504
-0.942627
-0.940706
-0.938741
-0.936731
-0.934678
-0.93258
-0.930438
-0.928251
-0.926021
-0.982306
-0.98226
-0.982167
-0.982028
-0.981842
-0.98161
-0.981332
-0.981007
-0.980636
-0.980218
-0.979754
-0.979244
-0.978687
-0.978085
-0.977436
-0.97674
-0.975999
-0.975211
-0.974378
-0.973498
-0.972573
-0.971602
-0.970584
-0.969522
-0.968413
-0.967259
-0.966059
-0.964814
-0.963523
-0.962186
-0.960805
-0.959378
-0.957905
-0.956388
-0.954825
-0.953218
-0.951565
-0.949867
-0.948125
-0.946337
-0.944505
-0.942629
-0.940708
-0.938742
-0.936732
-0.934678
-0.93258
-0.930437
-0.928251
-0.926021
-0.982304
-0.982258
-0.982165
-0.982026
-0.98184
-0.981608
-0.98133
-0.981005
-0.980634
-0.980217
-0.979753
-0.979243
-0.978687
-0.978084
-0.977436
-0.976741
-0.976
-0.975213
-0.97438
-0.973501
-0.972576
-0.971605
-0.970588
-0.969525
-0.968417
-0.967262
-0.966062
-0.964816
-0.963525
-0.962188
-0.960806
-0.959378
-0.957906
-0.956388
-0.954825
-0.953216
-0.951563
-0.949866
-0.948123
-0.946336
-0.944504
-0.942628
-0.940707
-0.938742
-0.936732
-0.934679
-0.932581
-0.930439
-0.928252
-0.926022
-0.982305
-0.982259
-0.982166
-0.982027
-0.981841
-0.981609
-0.981331
-0.981006
-0.980635
-0.980218
-0.979754
-0.979244
-0.978688
-0.978085
-0.977436
-0.976741
-0.975999
-0.975212
-0.974379
-0.973499
-0.972574
-0.971603
-0.970586
-0.969523
-0.968415
-0.967261
-0.966061
-0.964816
-0.963525
-0.962189
-0.960807
-0.95938
-0.957908
-0.95639
-0.954827
-0.953219
-0.951566
-0.949868
-0.948126
-0.946338
-0.944506
-0.942629
-0.940708
-0.938742
-0.936732
-0.934678
-0.932579
-0.930437
-0.928251
-0.926021
-0.982305
-0.982258
-0.982165
-0.982026
-0.981841
-0.981609
-0.98133
-0.981006
-0.980635
-0.980217
-0.979754
-0.979244
-0.978687
-0.978085
-0.977436
-0.976741
-0.976
-0.975213
-0.97438
-0.973501
-0.972576
-0.971605
-0.970588
-0.969525
-0.968416
-0.967262
-0.966062
-0.964816
-0.963525
-0.962188
-0.960806
-0.959378
-0.957906
-0.956388
-0.954825
-0.953217
-0.951564
-0.949867
-0.948124
-0.946337
-0.944506
-0.942629
-0.940709
-0.938743
-0.936734
-0.93468
-0.932582
-0.93044
-0.928253
-0.926023
-0.982305
-0.982259
-0.982166
-0.982027
-0.981841
-0.981609
-0.981331
-0.981007
-0.980636
-0.980218
-0.979755
-0.979245
-0.978688
-0.978086
-0.977437
-0.976742
-0.976
-0.975213
-0.97438
-0.9735
-0.972575
-0.971604
-0.970587
-0.969525
-0.968416
-0.967262
-0.966062
-0.964817
-0.963526
-0.96219
-0.960808
-0.959381
-0.957908
-0.95639
-0.954827
-0.953219
-0.951566
-0.949868
-0.948125
-0.946338
-0.944505
-0.942629
-0.940707
-0.938742
-0.936732
-0.934678
-0.93258
-0.930437
-0.928251
-0.926021
-0.982306
-0.982259
-0.982167
-0.982028
-0.981842
-0.98161
-0.981332
-0.981007
-0.980636
-0.980218
-0.979754
-0.979244
-0.978688
-0.978085
-0.977436
-0.976741
-0.976
-0.975213
-0.974379
-0.9735
-0.972575
-0.971603
-0.970586
-0.969524
-0.968415
-0.967261
-0.966061
-0.964815
-0.963524
-0.962187
-0.960805
-0.959378
-0.957906
-0.956388
-0.954826
-0.953218
-0.951566
-0.949868
-0.948126
-0.946339
-0.944507
-0.942631
-0.94071
-0.938745
-0.936735
-0.934681
-0.932582
-0.93044
-0.928254
-0.926023
-0.982306
-0.982259
-0.982167
-0.982028
-0.981842
-0.98161
-0.981332
-0.981007
-0.980636
-0.980219
-0.979755
-0.979245
-0.978689
-0.978086
-0.977437
-0.976742
-0.976001
-0.975213
-0.97438
-0.9735
-0.972575
-0.971604
-0.970587
-0.969524
-0.968416
-0.967262
-0.966062
-0.964816
-0.963525
-0.962189
-0.960807
-0.95938
-0.957907
-0.956389
-0.954826
-0.953218
-0.951565
-0.949867
-0.948125
-0.946337
-0.944505
-0.942629
-0.940707
-0.938742
-0.936732
-0.934678
-0.93258
-0.930438
-0.928252
-0.926022
-0.982306
-0.982259
-0.982166
-0.982027
-0.981841
-0.981609
-0.981331
-0.981006
-0.980635
-0.980217
-0.979753
-0.979243
-0.978687
-0.978084
-0.977435
-0.97674
-0.975999
-0.975211
-0.974378
-0.973499
-0.972573
-0.971602
-0.970585
-0.969523
-0.968414
-0.96726
-0.96606
-0.964815
-0.963524
-0.962188
-0.960806
-0.959379
-0.957907
-0.95639
-0.954827
-0.95322
-0.951567
-0.94987
-0.948128
-0.946341
-0.944509
-0.942632
-0.940711
-0.938745
-0.936735
-0.934681
-0.932582
-0.93044
-0.928253
-0.926023
-0.982305
-0.982259
-0.982166
-0.982027
-0.981842
-0.98161
-0.981331
-0.981007
-0.980636
-0.980218
-0.979754
-0.979244
-0.978687
-0.978085
-0.977436
-0.97674
-0.975999
-0.975212
-0.974378
-0.973499
-0.972574
-0.971603
-0.970586
-0.969523
-0.968415
-0.967261
-0.966061
-0.964816
-0.963525
-0.962189
-0.960807
-0.95938
-0.957907
-0.956389
-0.954827
-0.953219
-0.951566
-0.949868
-0.948126
-0.946338
-0.944506
-0.94263
-0.940709
-0.938743
-0.936734
-0.93468
-0.932581
-0.930439
-0.928253
-0.926023
-0.982304
-0.982257
-0.982164
-0.982025
-0.981839
-0.981607
-0.981329
-0.981004
-0.980633
-0.980216
-0.979752
-0.979242
-0.978685
-0.978083
-0.977434
-0.976739
-0.975998
-0.975211
-0.974377
-0.973498
-0.972573
-0.971602
-0.970586
-0.969523
-0.968415
-0.967261
-0.966061
-0.964816
-0.963526
-0.96219
-0.960808
-0.959381
-0.957909
-0.956392
-0.954829
-0.953222
-0.951569
-0.949871
-0.948129
-0.946341
-0.944509
-0.942632
-0.940711
-0.938745
-0.936735
-0.93468
-0.932581
-0.930439
-0.928252
-0.926022
-0.982304
-0.982258
-0.982165
-0.982026
-0.98184
-0.981608
-0.98133
-0.981005
-0.980634
-0.980216
-0.979752
-0.979242
-0.978686
-0.978083
-0.977434
-0.976739
-0.975997
-0.97521
-0.974377
-0.973497
-0.972572
-0.971601
-0.970585
-0.969522
-0.968414
-0.96726
-0.96606
-0.964815
-0.963524
-0.962188
-0.960806
-0.959379
-0.957907
-0.956389
-0.954827
-0.953219
-0.951567
-0.949869
-0.948127
-0.94634
-0.944508
-0.942631
-0.94071
-0.938745
-0.936735
-0.934681
-0.932583
-0.93044
-0.928254
-0.926023
-0.982302
-0.982256
-0.982163
-0.982024
-0.981838
-0.981606
-0.981328
-0.981003
-0.980632
-0.980215
-0.979751
-0.979241
-0.978684
-0.978082
-0.977433
-0.976738
-0.975997
-0.97521
-0.974377
-0.973498
-0.972573
-0.971602
-0.970585
-0.969523
-0.968415
-0.967261
-0.966061
-0.964816
-0.963526
-0.96219
-0.960808
-0.959381
-0.957909
-0.956392
-0.954829
-0.953221
-0.951568
-0.94987
-0.948127
-0.94634
-0.944507
-0.942631
-0.940709
-0.938744
-0.936733
-0.934679
-0.932581
-0.930438
-0.928252
-0.926022
-0.982303
-0.982257
-0.982164
-0.982025
-0.981839
-0.981607
-0.981329
-0.981004
-0.980633
-0.980215
-0.979751
-0.979241
-0.978684
-0.978081
-0.977432
-0.976737
-0.975996
-0.975208
-0.974375
-0.973496
-0.972571
-0.9716
-0.970583
-0.96952
-0.968412
-0.967258
-0.966058
-0.964813
-0.963522
-0.962186
-0.960804
-0.959378
-0.957906
-0.956388
-0.954826
-0.953219
-0.951566
-0.949869
-0.948127
-0.94634
-0.944508
-0.942632
-0.940711
-0.938745
-0.936736
-0.934681
-0.932583
-0.930441
-0.928254
-0.926024
-0.982301
-0.982254
-0.982162
-0.982022
-0.981837
-0.981605
-0.981326
-0.981002
-0.980631
-0.980213
-0.979749
-0.979239
-0.978683
-0.97808
-0.977431
-0.976736
-0.975995
-0.975208
-0.974374
-0.973495
-0.97257
-0.971599
-0.970583
-0.96952
-0.968412
-0.967258
-0.966059
-0.964814
-0.963523
-0.962187
-0.960805
-0.959378
-0.957906
-0.956389
-0.954826
-0.953218
-0.951565
-0.949868
-0.948125
-0.946338
-0.944507
-0.94263
-0.940709
-0.938744
-0.936735
-0.934681
-0.932583
-0.930441
-0.928256
-0.926026
-0.982302
-0.982255
-0.982163
-0.982024
-0.981838
-0.981606
-0.981327
-0.981002
-0.980631
-0.980213
-0.979749
-0.979239
-0.978682
-0.978079
-0.97743
-0.976735
-0.975993
-0.975206
-0.974373
-0.973493
-0.972568
-0.971597
-0.97058
-0.969518
-0.96841
-0.967256
-0.966056
-0.964811
-0.96352
-0.962184
-0.960803
-0.959376
-0.957905
-0.956387
-0.954825
-0.953218
-0.951565
-0.949868
-0.948126
-0.946339
-0.944508
-0.942631
-0.94071
-0.938745
-0.936735
-0.934681
-0.932583
-0.930441
-0.928255
-0.926025
-0.982298
-0.982251
-0.982158
-0.982019
-0.981833
-0.981601
-0.981323
-0.980998
-0.980627
-0.98021
-0.979746
-0.979236
-0.97868
-0.978077
-0.977428
-0.976733
-0.975992
-0.975204
-0.974371
-0.973492
-0.972567
-0.971596
-0.970579
-0.969517
-0.968409
-0.967255
-0.966056
-0.964811
-0.96352
-0.962184
-0.960803
-0.959376
-0.957904
-0.956387
-0.954825
-0.953217
-0.951565
-0.949868
-0.948126
-0.94634
-0.944509
-0.942633
-0.940713
-0.938748
-0.936739
-0.934685
-0.932587
-0.930446
-0.92826
-0.92603
-0.982299
-0.982253
-0.98216
-0.982021
-0.981835
-0.981603
-0.981324
-0.981
-0.980628
-0.98021
-0.979746
-0.979236
-0.978679
-0.978077
-0.977428
-0.976733
-0.975991
-0.975204
-0.974371
-0.973492
-0.972567
-0.971596
-0.970579
-0.969517
-0.968409
-0.967255
-0.966056
-0.964811
-0.96352
-0.962184
-0.960803
-0.959377
-0.957905
-0.956387
-0.954825
-0.953218
-0.951565
-0.949868
-0.948126
-0.946339
-0.944507
-0.942631
-0.940711
-0.938746
-0.936736
-0.934683
-0.932585
-0.930443
-0.928257
-0.926027
-0.982294
-0.982248
-0.982155
-0.982016
-0.98183
-0.981598
-0.98132
-0.980996
-0.980624
-0.980207
-0.979743
-0.979233
-0.978677
-0.978074
-0.977425
-0.97673
-0.975989
-0.975202
-0.974369
-0.97349
-0.972565
-0.971595
-0.970578
-0.969516
-0.968408
-0.967255
-0.966055
-0.964811
-0.96352
-0.962185
-0.960803
-0.959377
-0.957905
-0.956389
-0.954827
-0.95322
-0.951568
-0.949871
-0.948129
-0.946343
-0.944511
-0.942636
-0.940715
-0.93875
-0.936741
-0.934687
-0.932589
-0.930447
-0.928261
-0.92603
-0.982297
-0.98225
-0.982157
-0.982018
-0.981832
-0.9816
-0.981322
-0.980997
-0.980626
-0.980208
-0.979744
-0.979234
-0.978678
-0.978075
-0.977426
-0.976731
-0.97599
-0.975203
-0.97437
-0.973491
-0.972566
-0.971595
-0.970579
-0.969516
-0.968409
-0.967255
-0.966056
-0.964811
-0.96352
-0.962184
-0.960803
-0.959377
-0.957905
-0.956388
-0.954825
-0.953218
-0.951566
-0.949869
-0.948127
-0.94634
-0.944509
-0.942633
-0.940713
-0.938748
-0.936739
-0.934685
-0.932588
-0.930446
-0.92826
-0.92603
-0.982294
-0.982248
-0.982155
-0.982016
-0.98183
-0.981598
-0.98132
-0.980995
-0.980624
-0.980206
-0.979743
-0.979232
-0.978676
-0.978074
-0.977425
-0.97673
-0.975989
-0.975202
-0.97437
-0.973491
-0.972566
-0.971596
-0.97058
-0.969518
-0.96841
-0.967256
-0.966057
-0.964813
-0.963522
-0.962187
-0.960806
-0.959379
-0.957908
-0.956391
-0.954829
-0.953221
-0.951569
-0.949872
-0.94813
-0.946343
-0.944512
-0.942635
-0.940715
-0.93875
-0.93674
-0.934686
-0.932588
-0.930445
-0.928259
-0.926029
-0.982296
-0.982249
-0.982156
-0.982017
-0.981831
-0.981599
-0.981321
-0.980996
-0.980625
-0.980207
-0.979743
-0.979233
-0.978677
-0.978074
-0.977425
-0.97673
-0.975989
-0.975202
-0.974369
-0.97349
-0.972565
-0.971594
-0.970578
-0.969516
-0.968408
-0.967254
-0.966055
-0.96481
-0.96352
-0.962184
-0.960803
-0.959377
-0.957905
-0.956388
-0.954826
-0.95322
-0.951568
-0.949871
-0.948129
-0.946343
-0.944512
-0.942636
-0.940716
-0.938751
-0.936742
-0.934688
-0.93259
-0.930448
-0.928262
-0.926032
-0.982297
-0.98225
-0.982157
-0.982018
-0.981833
-0.981601
-0.981322
-0.980997
-0.980626
-0.980208
-0.979745
-0.979234
-0.978678
-0.978075
-0.977427
-0.976732
-0.975991
-0.975204
-0.974371
-0.973492
-0.972567
-0.971597
-0.97058
-0.969518
-0.96841
-0.967257
-0.966058
-0.964813
-0.963523
-0.962187
-0.960806
-0.959379
-0.957907
-0.95639
-0.954828
-0.95322
-0.951568
-0.949871
-0.948129
-0.946342
-0.94451
-0.942634
-0.940713
-0.938748
-0.936738
-0.934684
-0.932586
-0.930444
-0.928258
-0.926028
-0.982296
-0.98225
-0.982157
-0.982018
-0.981832
-0.9816
-0.981321
-0.980996
-0.980625
-0.980207
-0.979743
-0.979233
-0.978676
-0.978073
-0.977424
-0.976729
-0.975988
-0.975201
-0.974368
-0.973489
-0.972565
-0.971594
-0.970578
-0.969516
-0.968408
-0.967254
-0.966055
-0.964811
-0.963521
-0.962185
-0.960804
-0.959378
-0.957907
-0.95639
-0.954828
-0.953221
-0.951569
-0.949872
-0.948131
-0.946344
-0.944513
-0.942637
-0.940717
-0.938752
-0.936743
-0.934689
-0.932591
-0.930449
-0.928263
-0.926032
-0.9823
-0.982254
-0.982161
-0.982022
-0.981836
-0.981604
-0.981326
-0.981001
-0.98063
-0.980212
-0.979748
-0.979238
-0.978681
-0.978078
-0.977429
-0.976734
-0.975993
-0.975205
-0.974372
-0.973493
-0.972568
-0.971597
-0.970581
-0.969518
-0.96841
-0.967256
-0.966057
-0.964812
-0.963521
-0.962185
-0.960804
-0.959377
-0.957905
-0.956388
-0.954826
-0.953219
-0.951566
-0.949869
-0.948127
-0.94634
-0.944509
-0.942632
-0.940712
-0.938747
-0.936737
-0.934683
-0.932585
-0.930443
-0.928256
-0.926026
-0.982299
-0.982252
-0.982159
-0.98202
-0.981834
-0.981601
-0.981323
-0.980998
-0.980626
-0.980208
-0.979744
-0.979234
-0.978677
-0.978075
-0.977426
-0.976731
-0.97599
-0.975203
-0.97437
-0.973491
-0.972566
-0.971595
-0.970579
-0.969517
-0.968409
-0.967256
-0.966057
-0.964812
-0.963522
-0.962186
-0.960805
-0.959379
-0.957907
-0.956391
-0.954829
-0.953221
-0.951569
-0.949872
-0.948131
-0.946344
-0.944513
-0.942636
-0.940716
-0.938751
-0.936741
-0.934687
-0.932589
-0.930447
-0.928261
-0.92603
-0.982303
-0.982256
-0.982164
-0.982025
-0.981839
-0.981607
-0.981329
-0.981004
-0.980632
-0.980214
-0.97975
-0.97924
-0.978683
-0.97808
-0.977431
-0.976735
-0.975994
-0.975207
-0.974373
-0.973494
-0.972569
-0.971598
-0.970581
-0.969519
-0.968411
-0.967257
-0.966057
-0.964812
-0.963522
-0.962186
-0.960804
-0.959378
-0.957906
-0.956388
-0.954826
-0.953218
-0.951566
-0.949869
-0.948126
-0.946339
-0.944508
-0.942631
-0.94071
-0.938745
-0.936735
-0.934681
-0.932583
-0.930441
-0.928255
-0.926024
-0.982301
-0.982255
-0.982162
-0.982022
-0.981836
-0.981604
-0.981326
-0.981001
-0.980629
-0.980212
-0.979748
-0.979237
-0.978681
-0.978078
-0.977429
-0.976734
-0.975993
-0.975205
-0.974372
-0.973493
-0.972568
-0.971598
-0.970581
-0.969519
-0.968411
-0.967257
-0.966058
-0.964813
-0.963523
-0.962187
-0.960806
-0.95938
-0.957908
-0.956391
-0.954828
-0.953221
-0.951569
-0.949871
-0.948129
-0.946342
-0.94451
-0.942634
-0.940713
-0.938747
-0.936737
-0.934683
-0.932584
-0.930442
-0.928255
-0.926025
-0.982305
-0.982259
-0.982166
-0.982027
-0.981841
-0.981609
-0.98133
-0.981005
-0.980634
-0.980216
-0.979752
-0.979241
-0.978684
-0.978081
-0.977432
-0.976737
-0.975996
-0.975208
-0.974375
-0.973496
-0.97257
-0.971599
-0.970583
-0.96952
-0.968412
-0.967258
-0.966059
-0.964813
-0.963523
-0.962186
-0.960805
-0.959378
-0.957906
-0.956388
-0.954826
-0.953218
-0.951565
-0.949868
-0.948125
-0.946338
-0.944506
-0.94263
-0.940708
-0.938743
-0.936733
-0.934679
-0.932581
-0.930438
-0.928252
-0.926022
-0.982303
-0.982257
-0.982164
-0.982024
-0.981839
-0.981607
-0.981328
-0.981003
-0.980632
-0.980214
-0.97975
-0.97924
-0.978683
-0.97808
-0.977431
-0.976736
-0.975995
-0.975208
-0.974375
-0.973496
-0.972571
-0.9716
-0.970584
-0.969521
-0.968413
-0.96726
-0.96606
-0.964815
-0.963525
-0.962189
-0.960807
-0.95938
-0.957908
-0.95639
-0.954828
-0.95322
-0.951567
-0.949869
-0.948126
-0.946339
-0.944507
-0.94263
-0.940709
-0.938743
-0.936733
-0.934679
-0.93258
-0.930438
-0.928251
-0.926021
-0.982306
-0.98226
-0.982167
-0.982028
-0.981842
-0.98161
-0.981332
-0.981007
-0.980635
-0.980217
-0.979753
-0.979243
-0.978686
-0.978083
-0.977434
-0.976738
-0.975997
-0.97521
-0.974376
-0.973497
-0.972572
-0.9716
-0.970584
-0.969521
-0.968413
-0.967258
-0.966059
-0.964813
-0.963522
-0.962186
-0.960804
-0.959377
-0.957905
-0.956387
-0.954824
-0.953216
-0.951564
-0.949866
-0.948123
-0.946336
-0.944504
-0.942628
-0.940706
-0.938741
-0.936731
-0.934677
-0.932578
-0.930436
-0.92825
-0.926019
-0.982305
-0.982258
-0.982165
-0.982026
-0.98184
-0.981608
-0.981329
-0.981004
-0.980633
-0.980215
-0.979751
-0.979241
-0.978684
-0.978082
-0.977433
-0.976738
-0.975996
-0.975209
-0.974376
-0.973497
-0.972572
-0.971601
-0.970585
-0.969522
-0.968414
-0.96726
-0.96606
-0.964815
-0.963524
-0.962188
-0.960806
-0.959379
-0.957906
-0.956388
-0.954825
-0.953217
-0.951564
-0.949866
-0.948124
-0.946336
-0.944504
-0.942627
-0.940706
-0.938741
-0.936731
-0.934676
-0.932578
-0.930436
-0.928249
-0.926019
-0.982308
-0.982261
-0.982168
-0.982029
-0.981844
-0.981611
-0.981333
-0.981008
-0.980636
-0.980218
-0.979754
-0.979244
-0.978687
-0.978084
-0.977434
-0.976739
-0.975997
-0.97521
-0.974376
-0.973497
-0.972572
-0.9716
-0.970583
-0.969521
-0.968412
-0.967258
-0.966058
-0.964813
-0.963522
-0.962185
-0.960803
-0.959376
-0.957904
-0.956386
-0.954823
-0.953215
-0.951562
-0.949865
-0.948122
-0.946335
-0.944503
-0.942626
-0.940705
-0.93874
-0.93673
-0.934675
-0.932577
-0.930435
-0.928248
-0.926018
-0.982305
-0.982259
-0.982166
-0.982026
-0.98184
-0.981608
-0.98133
-0.981005
-0.980633
-0.980216
-0.979751
-0.979241
-0.978685
-0.978082
-0.977433
-0.976738
-0.975996
-0.975209
-0.974376
-0.973497
-0.972572
-0.971601
-0.970584
-0.969521
-0.968413
-0.967259
-0.966059
-0.964814
-0.963523
-0.962186
-0.960804
-0.959377
-0.957904
-0.956387
-0.954824
-0.953216
-0.951563
-0.949865
-0.948123
-0.946336
-0.944504
-0.942627
-0.940706
-0.938741
-0.936731
-0.934677
-0.932578
-0.930436
-0.928249
-0.926019
-0.982307
-0.98226
-0.982168
-0.982028
-0.981843
-0.98161
-0.981332
-0.981007
-0.980635
-0.980217
-0.979753
-0.979242
-0.978686
-0.978083
-0.977433
-0.976738
-0.975997
-0.975209
-0.974376
-0.973496
-0.972571
-0.9716
-0.970583
-0.969521
-0.968412
-0.967258
-0.966058
-0.964813
-0.963522
-0.962185
-0.960803
-0.959376
-0.957904
-0.956386
-0.954823
-0.953215
-0.951562
-0.949865
-0.948122
-0.946335
-0.944502
-0.942626
-0.940704
-0.938739
-0.936729
-0.934674
-0.932576
-0.930433
-0.928247
-0.926016
-0.982304
-0.982257
-0.982164
-0.982025
-0.981839
-0.981607
-0.981328
-0.981004
-0.980632
-0.980215
-0.979751
-0.979241
-0.978684
-0.978081
-0.977432
-0.976737
-0.975996
-0.975209
-0.974375
-0.973496
-0.972571
-0.9716
-0.970583
-0.96952
-0.968412
-0.967258
-0.966058
-0.964812
-0.963521
-0.962185
-0.960803
-0.959376
-0.957903
-0.956386
-0.954823
-0.953215
-0.951562
-0.949865
-0.948122
-0.946335
-0.944503
-0.942627
-0.940706
-0.93874
-0.93673
-0.934676
-0.932578
-0.930435
-0.928249
-0.926019
-0.982304
-0.982258
-0.982165
-0.982025
-0.98184
-0.981608
-0.981329
-0.981004
-0.980633
-0.980215
-0.979751
-0.979241
-0.978684
-0.978082
-0.977432
-0.976737
-0.975996
-0.975209
-0.974375
-0.973496
-0.972571
-0.9716
-0.970583
-0.96952
-0.968412
-0.967258
-0.966058
-0.964812
-0.963521
-0.962185
-0.960803
-0.959376
-0.957903
-0.956385
-0.954823
-0.953215
-0.951562
-0.949864
-0.948121
-0.946334
-0.944502
-0.942625
-0.940704
-0.938738
-0.936728
-0.934674
-0.932575
-0.930432
-0.928246
-0.926015
-0.982301
-0.982255
-0.982162
-0.982023
-0.981837
-0.981605
-0.981327
-0.981002
-0.980631
-0.980214
-0.97975
-0.97924
-0.978684
-0.978081
-0.977432
-0.976737
-0.975995
-0.975208
-0.974374
-0.973495
-0.972569
-0.971598
-0.970581
-0.969518
-0.96841
-0.967255
-0.966055
-0.96481
-0.963519
-0.962182
-0.9608
-0.959373
-0.957901
-0.956383
-0.954821
-0.953213
-0.95156
-0.949863
-0.94812
-0.946333
-0.944502
-0.942625
-0.940704
-0.938739
-0.936729
-0.934676
-0.932577
-0.930435
-0.928249
-0.926019
-0.982301
-0.982255
-0.982162
-0.982023
-0.981837
-0.981605
-0.981327
-0.981002
-0.980631
-0.980214
-0.97975
-0.97924
-0.978684
-0.978081
-0.977432
-0.976737
-0.975996
-0.975208
-0.974375
-0.973495
-0.97257
-0.971599
-0.970582
-0.969519
-0.968411
-0.967256
-0.966056
-0.964811
-0.96352
-0.962183
-0.960801
-0.959374
-0.957901
-0.956384
-0.954821
-0.953213
-0.95156
-0.949862
-0.948119
-0.946332
-0.9445
-0.942623
-0.940702
-0.938736
-0.936726
-0.934672
-0.932574
-0.930431
-0.928245
-0.926014
-0.9823
-0.982254
-0.982161
-0.982022
-0.981836
-0.981604
-0.981326
-0.981002
-0.980631
-0.980213
-0.979749
-0.979239
-0.978683
-0.97808
-0.977431
-0.976735
-0.975994
-0.975206
-0.974373
-0.973493
-0.972567
-0.971596
-0.970579
-0.969516
-0.968407
-0.967253
-0.966053
-0.964807
-0.963516
-0.96218
-0.960798
-0.959371
-0.957899
-0.956381
-0.954818
-0.953211
-0.951558
-0.949861
-0.948119
-0.946332
-0.9445
-0.942624
-0.940703
-0.938738
-0.936729
-0.934675
-0.932577
-0.930435
-0.928249
-0.926018
-0.982299
-0.982253
-0.98216
-0.982021
-0.981836
-0.981604
-0.981326
-0.981001
-0.98063
-0.980213
-0.97975
-0.97924
-0.978683
-0.978081
-0.977432
-0.976737
-0.975995
-0.975208
-0.974375
-0.973495
-0.97257
-0.971599
-0.970581
-0.969518
-0.96841
-0.967255
-0.966055
-0.96481
-0.963518
-0.962182
-0.9608
-0.959372
-0.9579
-0.956382
-0.954819
-0.953211
-0.951558
-0.94986
-0.948117
-0.94633
-0.944497
-0.942621
-0.9407
-0.938734
-0.936724
-0.93467
-0.932572
-0.930429
-0.928243
-0.926013
-0.982298
-0.982252
-0.982159
-0.98202
-0.981835
-0.981603
-0.981325
-0.981
-0.980629
-0.980212
-0.979748
-0.979238
-0.978681
-0.978079
-0.977429
-0.976734
-0.975993
-0.975205
-0.974371
-0.973492
-0.972566
-0.971595
-0.970578
-0.969515
-0.968406
-0.967252
-0.966052
-0.964806
-0.963515
-0.962179
-0.960797
-0.95937
-0.957898
-0.95638
-0.954818
-0.95321
-0.951557
-0.94986
-0.948118
-0.946331
-0.944499
-0.942623
-0.940702
-0.938737
-0.936727
-0.934673
-0.932575
-0.930433
-0.928247
-0.926017
-0.982298
-0.982252
-0.982159
-0.98202
-0.981835
-0.981603
-0.981325
-0.981001
-0.98063
-0.980213
-0.979749
-0.97924
-0.978683
-0.978081
-0.977432
-0.976737
-0.975995
-0.975208
-0.974374
-0.973495
-0.972569
-0.971598
-0.970581
-0.969518
-0.968409
-0.967254
-0.966054
-0.964808
-0.963517
-0.96218
-0.960798
-0.95937
-0.957898
-0.95638
-0.954817
-0.953209
-0.951556
-0.949858
-0.948115
-0.946328
-0.944496
-0.942619
-0.940698
-0.938733
-0.936723
-0.934668
-0.93257
-0.930428
-0.928242
-0.926012
-0.982297
-0.982251
-0.982158
-0.982019
-0.981833
-0.981601
-0.981323
-0.980998
-0.980628
-0.98021
-0.979746
-0.979236
-0.97868
-0.978077
-0.977428
-0.976733
-0.975992
-0.975205
-0.974371
-0.973492
-0.972566
-0.971595
-0.970578
-0.969515
-0.968406
-0.967252
-0.966052
-0.964806
-0.963515
-0.962179
-0.960797
-0.95937
-0.957898
-0.95638
-0.954817
-0.95321
-0.951557
-0.94986
-0.948117
-0.94633
-0.944499
-0.942622
-0.940701
-0.938736
-0.936726
-0.934672
-0.932574
-0.930432
-0.928246
-0.926015
-0.982297
-0.982251
-0.982159
-0.98202
-0.981835
-0.981603
-0.981325
-0.981001
-0.98063
-0.980213
-0.979749
-0.979239
-0.978683
-0.97808
-0.977431
-0.976736
-0.975995
-0.975208
-0.974374
-0.973494
-0.972569
-0.971597
-0.97058
-0.969517
-0.968408
-0.967253
-0.966053
-0.964807
-0.963516
-0.962179
-0.960797
-0.959369
-0.957897
-0.956379
-0.954816
-0.953208
-0.951555
-0.949857
-0.948115
-0.946328
-0.944496
-0.942619
-0.940698
-0.938732
-0.936722
-0.934668
-0.93257
-0.930428
-0.928242
-0.926012
-0.982296
-0.982249
-0.982157
-0.982017
-0.981832
-0.9816
-0.981322
-0.980997
-0.980626
-0.980209
-0.979745
-0.979236
-0.978679
-0.978077
-0.977428
-0.976733
-0.975992
-0.975205
-0.974371
-0.973492
-0.972567
-0.971596
-0.970578
-0.969516
-0.968407
-0.967253
-0.966053
-0.964807
-0.963516
-0.96218
-0.960798
-0.959371
-0.957898
-0.956381
-0.954818
-0.95321
-0.951558
-0.94986
-0.948118
-0.946331
-0.944499
-0.942622
-0.940701
-0.938736
-0.936726
-0.934672
-0.932573
-0.930431
-0.928245
-0.926014
-0.982305
-0.982259
-0.982166
-0.982027
-0.981842
-0.98161
-0.981331
-0.981006
-0.980635
-0.980218
-0.979754
-0.979243
-0.978687
-0.978084
-0.977435
-0.97674
-0.975998
-0.975211
-0.974377
-0.973498
-0.972573
-0.971601
-0.970584
-0.969521
-0.968413
-0.967259
-0.966059
-0.964814
-0.963523
-0.962186
-0.960804
-0.959377
-0.957905
-0.956387
-0.954825
-0.953217
-0.951564
-0.949866
-0.948124
-0.946336
-0.944504
-0.942628
-0.940707
-0.938741
-0.936732
-0.934678
-0.93258
-0.930437
-0.928252
-0.926021
-0.982302
-0.982255
-0.982162
-0.982023
-0.981838
-0.981606
-0.981328
-0.981003
-0.980632
-0.980215
-0.979752
-0.979242
-0.978686
-0.978084
-0.977436
-0.976741
-0.976
-0.975213
-0.97438
-0.973501
-0.972576
-0.971605
-0.970588
-0.969525
-0.968417
-0.967262
-0.966062
-0.964817
-0.963525
-0.962189
-0.960806
-0.959379
-0.957906
-0.956388
-0.954825
-0.953217
-0.951564
-0.949866
-0.948124
-0.946336
-0.944504
-0.942628
-0.940707
-0.938741
-0.936732
-0.934678
-0.932579
-0.930437
-0.928251
-0.926021
-0.982306
-0.98226
-0.982167
-0.982028
-0.981842
-0.98161
-0.981332
-0.981007
-0.980635
-0.980218
-0.979753
-0.979243
-0.978686
-0.978084
-0.977435
-0.976739
-0.975998
-0.97521
-0.974377
-0.973498
-0.972572
-0.971601
-0.970584
-0.969521
-0.968413
-0.967259
-0.966059
-0.964814
-0.963523
-0.962186
-0.960804
-0.959377
-0.957905
-0.956387
-0.954824
-0.953217
-0.951564
-0.949866
-0.948123
-0.946336
-0.944504
-0.942628
-0.940707
-0.938741
-0.936732
-0.934678
-0.93258
-0.930438
-0.928252
-0.926022
-0.982304
-0.982258
-0.982165
-0.982026
-0.98184
-0.981608
-0.98133
-0.981005
-0.980634
-0.980217
-0.979753
-0.979243
-0.978687
-0.978084
-0.977436
-0.976741
-0.975999
-0.975212
-0.974379
-0.9735
-0.972575
-0.971604
-0.970587
-0.969524
-0.968415
-0.967261
-0.966061
-0.964816
-0.963524
-0.962188
-0.960806
-0.959378
-0.957905
-0.956388
-0.954825
-0.953217
-0.951564
-0.949866
-0.948123
-0.946336
-0.944504
-0.942628
-0.940707
-0.938741
-0.936732
-0.934678
-0.932579
-0.930437
-0.928251
-0.926021
-0.982307
-0.982261
-0.982168
-0.982028
-0.981843
-0.981611
-0.981332
-0.981007
-0.980636
-0.980218
-0.979754
-0.979244
-0.978687
-0.978084
-0.977435
-0.97674
-0.975999
-0.975211
-0.974378
-0.973498
-0.972573
-0.971601
-0.970584
-0.969522
-0.968413
-0.967259
-0.966059
-0.964813
-0.963523
-0.962186
-0.960805
-0.959377
-0.957905
-0.956387
-0.954825
-0.953217
-0.951564
-0.949867
-0.948124
-0.946337
-0.944505
-0.942628
-0.940707
-0.938742
-0.936732
-0.934678
-0.93258
-0.930438
-0.928252
-0.926022
-0.982305
-0.982259
-0.982166
-0.982027
-0.981841
-0.981609
-0.981331
-0.981006
-0.980635
-0.980217
-0.979754
-0.979244
-0.978687
-0.978085
-0.977436
-0.976741
-0.976
-0.975213
-0.974379
-0.9735
-0.972575
-0.971604
-0.970587
-0.969524
-0.968416
-0.967262
-0.966061
-0.964816
-0.963525
-0.962188
-0.960806
-0.959378
-0.957905
-0.956387
-0.954824
-0.953216
-0.951563
-0.949866
-0.948123
-0.946336
-0.944504
-0.942628
-0.940707
-0.938742
-0.936733
-0.934678
-0.93258
-0.930438
-0.928252
-0.926022
-0.982306
-0.982259
-0.982167
-0.982027
-0.981842
-0.98161
-0.981331
-0.981006
-0.980635
-0.980218
-0.979754
-0.979244
-0.978687
-0.978085
-0.977436
-0.97674
-0.975999
-0.975212
-0.974378
-0.973499
-0.972574
-0.971602
-0.970586
-0.969523
-0.968414
-0.96726
-0.966061
-0.964815
-0.963524
-0.962188
-0.960806
-0.959379
-0.957907
-0.956389
-0.954827
-0.953219
-0.951566
-0.949868
-0.948125
-0.946338
-0.944506
-0.942629
-0.940708
-0.938742
-0.936733
-0.934679
-0.93258
-0.930438
-0.928252
-0.926022
-0.982305
-0.982258
-0.982165
-0.982026
-0.981841
-0.981609
-0.981331
-0.981006
-0.980635
-0.980218
-0.979754
-0.979244
-0.978688
-0.978085
-0.977437
-0.976742
-0.976001
-0.975214
-0.97438
-0.973501
-0.972576
-0.971605
-0.970588
-0.969525
-0.968416
-0.967262
-0.966062
-0.964816
-0.963525
-0.962188
-0.960806
-0.959378
-0.957906
-0.956388
-0.954825
-0.953217
-0.951564
-0.949867
-0.948124
-0.946337
-0.944506
-0.942629
-0.940708
-0.938743
-0.936734
-0.93468
-0.932581
-0.930439
-0.928253
-0.926023
-0.982305
-0.982258
-0.982166
-0.982027
-0.981841
-0.981609
-0.981331
-0.981006
-0.980635
-0.980218
-0.979754
-0.979244
-0.978688
-0.978085
-0.977436
-0.976741
-0.976
-0.975213
-0.97438
-0.9735
-0.972575
-0.971604
-0.970587
-0.969525
-0.968416
-0.967262
-0.966063
-0.964817
-0.963526
-0.96219
-0.960808
-0.959381
-0.957908
-0.956391
-0.954827
-0.953219
-0.951566
-0.949868
-0.948126
-0.946338
-0.944506
-0.942629
-0.940708
-0.938742
-0.936733
-0.934678
-0.93258
-0.930438
-0.928252
-0.926022
-0.982306
-0.982259
-0.982167
-0.982028
-0.981842
-0.98161
-0.981332
-0.981007
-0.980636
-0.980219
-0.979755
-0.979245
-0.978689
-0.978086
-0.977437