/*--------------------------------*- C++ -*----------------------------------*\
  =========                 |
  \\      /  F ield         | OpenFOAM: The Open Source CFD Toolbox
   \\    /   O peration     | Website:  https://openfoam.org
    \\  /    A nd           | Version:  10
     \\/     M anipulation  |
\*---------------------------------------------------------------------------*/
FoamFile
{
    format      ascii;
    class       volScalarField;
    location    "0.8";
    object      gradTx;
}
// * * * * * * * * * * * * * * * * * * * * * * * * * * * * * * * * * * * * * //

dimensions      [0 -1 0 1 0 0 0];

internalField   nonuniform List<scalar> 
47104
(
1.3959e-13
-6.19299e-15
5.86824e-13
5.51545e-13
-1.94693e-13
1.55231e-13
2.56927e-13
5.25537e-14
-2.57264e-15
-1.39584e-13
9.32208e-15
-9.24761e-14
1.84626e-13
-5.0578e-13
1.36972e-14
2.06196e-11
2.97079e-13
-1.99181e-11
-1.55588e-11
-1.49151e-11
-1.39536e-13
9.21406e-14
5.28398e-12
1.93937e-14
-5.90722e-12
1.32754e-13
6.59724e-13
2.23745e-13
6.41274e-13
2.88441e-13
-1.38381e-11
-1.40588e-11
-6.4076e-13
1.46494e-13
-1.0033e-13
8.70761e-14
-5.54172e-13
-1.17503e-13
7.28849e-13
1.57889e-13
1.4855e-13
5.42096e-14
-5.45399e-14
-1.50007e-13
-1.59357e-14
-2.42882e-13
3.5623e-14
-1.49982e-13
1.7877e-13
0
0
8.54397e-13
1.64541e-13
-8.74391e-14
1.34836e-13
3.43714e-12
2.32105e-13
1.09586e-11
-2.18836e-13
-1.53001e-11
1.38211e-11
3.54911e-13
-1.38702e-11
4.50514e-13
-5.7098e-13
6.67922e-15
4.82651e-13
2.92239e-12
-1.97035e-13
-2.8161e-12
4.56183e-13
-2.05149e-13
-4.73928e-13
-2.02642e-11
5.47139e-14
2.03608e-11
-1.40107e-13
-4.20478e-14
7.04264e-13
7.35228e-13
-1.39766e-13
1.76012e-13
5.56994e-13
-1.59196e-13
-5.49235e-13
1.03799e-13
1.57396e-11
-1.83546e-13
8.45792e-13
1.62389e-11
1.39609e-13
4.66196e-13
-1.21779e-13
-3.50837e-13
-1.53493e-11
1.50277e-13
1.45481e-11
-1.43437e-11
6.06343e-13
1.41734e-11
-1.49214e-13
-2.17131e-13
-2.76796e-12
8.04426e-14
2.82477e-12
-2.09818e-14
1.07548e-13
-2.01078e-13
1.02528e-13
4.47613e-13
-1.49336e-13
-2.56496e-11
-1.28705e-11
2.58e-11
1.29864e-11
2.07173e-11
1.37592e-11
-3.75223e-11
-1.39347e-11
1.67247e-11
1.23924e-11
1.79562e-11
-1.1302e-11
1.16772e-12
-3.50106e-13
-3.31339e-11
6.35874e-11
-3.05339e-11
0
1.493e-13
1.49207e-13
-6.69186e-12
1.32057e-13
4.57472e-15
-3.96408e-11
4.00481e-11
-3.18502e-14
-2.67229e-11
-1.60378e-11
-7.46005e-13
-1.49167e-13
5.87059e-12
2.1768e-12
-2.34314e-12
3.68334e-13
-2.6547e-11
2.64925e-11
-6.41436e-13
-1.69009e-11
-1.67058e-11
1.41717e-11
1.44714e-11
5.59002e-13
6.62395e-13
1.0416e-11
-1.04168e-11
3.74492e-11
-3.6787e-11
-2.079e-11
3.87825e-12
3.46219e-11
2.3181e-12
-2.59815e-11
-3.00299e-11
3.05359e-11
3.93749e-14
2.25883e-13
3.78374e-11
-3.06565e-12
3.1335e-11
0
-2.61892e-13
4.22452e-11
-4.16464e-11
5.15428e-13
9.52966e-14
-1.40128e-12
2.58775e-13
6.2849e-12
0
1.43381e-11
9.88754e-12
-1.45444e-11
-9.64182e-12
-6.39302e-13
-1.83108e-13
-6.48523e-13
4.66426e-13
-1.34432e-11
-1.41877e-11
-1.4921e-13
3.03503e-13
-4.53412e-13
4.39411e-13
-2.20191e-11
-1.47623e-11
2.21737e-11
1.46127e-11
-2.29462e-13
-2.98422e-13
1.49189e-13
1.85591e-11
1.37301e-11
-1.8568e-11
-1.35222e-11
-6.47761e-14
-1.48531e-13
1.49571e-13
-1.559e-13
0
9.70145e-12
-2.26196e-11
5.69754e-12
-3.53966e-11
3.56768e-11
-5.92946e-13
-7.14514e-13
5.19459e-13
1.77182e-13
-1.16407e-11
1.35684e-11
6.86912e-12
1.04413e-12
-8.65602e-13
1.23669e-13
-3.55852e-13
1.12163e-12
8.27296e-14
7.32089e-13
6.41115e-12
-1.01305e-11
3.73458e-11
2.55956e-10
-2.24946e-07
-1.3858e-08
3.19974e-09
4.02701e-08
2.46342e-08
-1.92965e-13
-5.66099e-12
-2.98048e-13
3.61196e-13
4.77822e-10
-2.79121e-07
6.52821e-08
-1.47262e-08
-1.84863e-07
3.96445e-08
-4.22314e-11
0
2.98074e-13
1.13052e-13
4.80961e-10
-2.85837e-07
6.92159e-08
-1.56902e-08
-1.93398e-07
4.05656e-08
2.53206e-13
-5.51382e-12
-6.55673e-12
1.31913e-11
5.16328e-10
-2.43292e-07
5.25003e-08
-1.17097e-08
-1.53746e-07
3.68561e-08
-9.02293e-14
0
-5.36967e-12
9.26609e-12
-3.58142e-11
-1.01383e-08
-2.04084e-09
4.72437e-10
5.67026e-09
-1.17826e-09
4.17699e-11
-4.47381e-13
1.49293e-13
1.90947e-11
-1.82017e-11
-4.06804e-11
3.9429e-11
1.48415e-11
-1.46848e-11
-1.46789e-14
-6.30954e-13
1.1494e-11
-1.67086e-11
1.96691e-11
1.66485e-11
-2.00849e-11
4.52926e-13
-6.66047e-13
-4.1339e-14
3.01796e-13
1.3792e-13
0
-1.50338e-11
-1.35747e-11
-7.29679e-14
-1.46537e-12
-2.0621e-11
-1.52799e-13
2.38854e-11
-9.80484e-15
-3.35987e-12
-1.48823e-13
1.48615e-13
4.46779e-14
-7.99336e-12
-4.87411e-11
-1.24154e-11
1.57921e-11
1.57078e-11
5.30943e-11
-8.64884e-13
-1.20361e-11
4.42901e-13
4.40292e-11
-4.23917e-09
-3.16726e-07
-1.73447e-09
1.26449e-09
1.33654e-08
7.9346e-07
9.07475e-08
7.08606e-12
-1.29087e-11
1.08825e-08
7.82518e-05
-0.980968
-0.00685988
0.000435992
0.0185032
0.818555
4.25805e-06
-1.32017e-11
-8.35023e-12
1.02046e-08
8.08203e-05
-1.52368
-0.0232022
0.00137587
0.065786
1.05002
3.83748e-06
6.15248e-12
8.05806e-12
1.01293e-08
8.12986e-05
-1.53171
-0.024185
0.00144434
0.067547
1.05391
3.81813e-06
1.56747e-11
-1.76081e-12
1.04864e-08
8.03379e-05
-1.51193
-0.0220466
0.00129857
0.0633132
1.04201
3.90912e-06
1.17361e-11
-1.86092e-11
8.00326e-09
7.96059e-05
0.190597
-0.0153665
-0.0168377
-0.01794
-0.203553
2.53385e-06
6.05393e-12
1.48658e-13
4.93963e-13
8.08905e-09
2.6034e-08
1.1497e-09
-2.81889e-10
-5.19553e-09
-4.56081e-08
-6.88154e-11
4.90508e-12
-5.95366e-13
1.62527e-11
5.3769e-13
-1.6944e-12
1.75017e-13
-1.48083e-11
-1.18318e-13
1.76514e-11
3.00111e-13
-1.75643e-11
-7.43326e-13
-2.85815e-13
2.92173e-13
3.96484e-13
3.45836e-13
-5.81475e-14
-1.54412e-11
5.19803e-13
1.51313e-11
0
2.9233e-11
2.2615e-11
2.65576e-12
3.13698e-09
1.25041e-09
-2.10854e-10
-3.12234e-09
2.2332e-10
2.7891e-11
-3.85748e-12
2.74753e-11
-5.35667e-10
-1.93681e-06
0.0256941
0.000685658
0.000159617
-0.00110323
0.00120398
6.6187e-07
-2.92371e-11
-5.05103e-11
-2.31045e-07
-0.947286
0.000942094
4.74607e-11
-6.80936e-11
-4.51968e-07
-1.14949
0.00117326
7.21366e-11
-7.09958e-11
-4.37346e-07
-1.15161
0.00117594
1.02063e-10
-6.4477e-11
-4.77435e-07
-1.146
0.00116268
5.22537e-11
6.61489e-12
2.69078e-08
0.0131187
-6.54269e-05
9.25738e-12
-5.34327e-12
2.63318e-14
4.08803e-08
1.66793e-05
1.19801e-06
-2.48505e-07
-5.90653e-06
2.4962e-06
5.95511e-10
-5.19446e-12
-1.4865e-13
5.92103e-13
1.17923e-13
-1.46123e-11
1.85425e-13
3.55635e-11
-6.34523e-13
-3.48184e-12
1.5782e-13
-1.85835e-11
2.23059e-12
-8.94826e-15
-2.11409e-12
1.46736e-13
2.49967e-13
-2.65234e-13
-2.6318e-13
-4.28747e-13
2.10122e-13
4.46039e-13
1.33687e-11
6.66839e-11
-2.96905e-11
3.10438e-09
1.70496e-09
-2.57103e-10
-4.23395e-09
3.57577e-10
4.12793e-12
-6.08898e-12
-5.58743e-12
-6.32875e-10
-2.09807e-06
0.0320958
0.000869257
0.000125298
-0.00162196
0.00131046
6.99571e-07
2.48471e-11
-4.58324e-11
-1.85992e-07
-0.973913
0.000967071
2.74096e-11
-7.01451e-11
-4.78265e-07
-1.2
0.00127505
6.75395e-11
-5.93292e-11
-4.59281e-07
-1.20298
0.00127937
5.97476e-11
-5.60178e-11
-4.70985e-07
-1.19155
0.00125621
7.005e-11
-1.63296e-11
8.25416e-09
-0.0368976
-6.97132e-05
-3.52905e-12
-1.29248e-11
-1.29574e-11
4.31164e-08
1.96064e-05
1.65724e-06
-3.63004e-07
-9.47145e-06
1.32509e-06
5.61245e-10
1.14391e-11
1.48683e-13
8.29946e-14
1.6395e-11
4.44955e-13
-1.64731e-11
-2.05857e-13
-1.79764e-13
1.62301e-11
1.71373e-14
-1.63581e-11
-1.63671e-12
-6.90028e-13
6.42159e-13
-3.80997e-13
2.46377e-13
6.23328e-14
-1.9567e-13
-1.35012e-13
1.80819e-13
-1.48767e-13
4.16291e-12
-5.39613e-11
5.44585e-11
2.86438e-09
1.75682e-09
-2.6982e-10
-4.25365e-09
3.51234e-10
-2.83904e-13
2.09581e-11
3.06156e-11
-6.26495e-10
-2.10514e-06
0.0322341
0.000854749
8.66337e-05
-0.00168331
0.00131768
7.04058e-07
-8.38745e-12
-4.73242e-11
-1.72381e-07
-0.974679
0.000969181
4.12119e-11
-6.3974e-11
-4.57856e-07
-1.20209
0.00127982
4.54797e-11
-3.17717e-11
-4.35033e-07
-1.20542
0.00128435
6.16514e-11
-3.572e-11
-5.00288e-07
-1.19764
0.00126046
3.83114e-11
1.32518e-12
1.82937e-08
0.0145114
-7.00345e-05
3.54679e-11
-7.73187e-12
3.16982e-11
4.31376e-08
1.98214e-05
1.7224e-06
-3.0885e-07
-7.0843e-06
2.89317e-06
6.64486e-10
1.04083e-11
-1.90419e-11
-2.31528e-13
3.8316e-12
1.59394e-11
3.11931e-11
-1.57205e-11
-1.98305e-11
2.17311e-13
3.38342e-12
-1.48797e-13
-2.90274e-11
2.28088e-14
2.89136e-11
4.99027e-13
1.72856e-11
-1.46772e-11
-1.68121e-11
1.4253e-11
5.76039e-13
5.9536e-13
2.975e-13
-2.24436e-12
9.23151e-12
2.83115e-09
1.75429e-09
-2.87139e-10
-4.21363e-09
3.28773e-10
6.06609e-14
7.43587e-13
-4.71372e-12
-5.85652e-10
-2.09475e-06
0.0322584
0.000852921
8.1402e-05
-0.00169066
0.00131738
7.00226e-07
6.47818e-12
-4.75156e-11
-2.96406e-07
0.10717
0.000969591
5.98241e-11
-6.11338e-11
-4.59186e-07
-1.2007
0.00128028
6.34263e-11
-5.9396e-11
-4.33905e-07
-1.2056
0.00128482
5.85151e-11
-2.04861e-11
-4.97942e-07
-1.19808
0.00126088
4.51606e-11
7.21913e-12
1.83057e-08
0.0145273
-7.00748e-05
2.94504e-12
-1.21993e-11
-3.42204e-11
4.30437e-08
1.9832e-05
1.72303e-06
-3.35563e-07
-7.64919e-06
2.81427e-06
6.2842e-10
2.97536e-13
0
-1.52902e-11
1.45783e-13
3.23217e-11
9.2203e-14
-1.67876e-11
-5.96988e-13
-1.63954e-14
-1.05326e-14
0
2.38246e-12
-3.44582e-13
-3.07292e-12
-4.80757e-12
-1.25614e-13
4.78042e-12
-4.86911e-13
-1.86346e-13
8.57599e-13
1.48897e-13
-1.10105e-11
7.72481e-14
2.29344e-11
2.97858e-09
1.71937e-09
-2.59294e-10
-4.29489e-09
3.4726e-10
7.63913e-11
-4.76085e-12
-1.29694e-11
9.81235e-11
-2.09134e-06
0.0321852
0.000850354
9.42039e-05
-0.00166222
0.00131407
6.95366e-07
-7.07152e-12
-4.45105e-11
-3.07084e-07
0.203779
0.000969139
4.04144e-11
-6.87514e-11
-4.7615e-07
-1.1999
0.00127729
6.51156e-11
-8.07637e-11
-4.51433e-07
-1.20462
0.00128164
8.24813e-11
-5.23657e-11
-5.11457e-07
-1.19725
0.00125837
4.68133e-11
-1.91644e-12
1.83087e-08
0.0145272
-6.99799e-05
-1.37028e-11
5.50662e-12
-2.82324e-13
4.29268e-08
1.96261e-05
1.65898e-06
-3.6084e-07
-9.46593e-06
1.3198e-06
6.28447e-10
-1.48823e-13
-1.48892e-13
-3.48659e-14
6.15143e-13
-4.94939e-12
-4.69922e-13
4.67696e-12
-6.12916e-13
1.98595e-13
-4.73197e-13
-2.9785e-13
-1.48928e-13
-5.66922e-14
-1.7718e-11
-2.27241e-13
1.77289e-11
9.72835e-14
-2.10662e-14
1.97514e-11
-1.35049e-13
-1.98088e-11
2.12802e-11
2.68935e-11
6.84963e-12
1.01721e-09
3.96262e-10
-6.43704e-11
-1.08605e-09
2.23835e-10
2.93703e-11
5.953e-13
2.49216e-11
-5.68966e-10
-2.06943e-06
0.0272289
0.00066385
8.90169e-05
-0.00124632
0.00127881
6.75775e-07
2.46238e-11
2.34641e-11
-8.66255e-08
-0.95767
0.000833293
1.90868e-11
7.25873e-13
-1.14209e-07
-1.16669
0.000947983
4.20905e-12
2.54075e-11
-9.44604e-08
-1.16931
0.0009495
3.91886e-12
-7.87233e-12
-1.62821e-07
-1.16363
0.00094679
6.84838e-12
-1.9622e-11
1.53109e-08
0.0135544
-6.19558e-05
3.09686e-12
-7.14568e-12
-7.1807e-13
3.82457e-08
1.39381e-05
9.84558e-07
-1.77254e-07
-4.10724e-06
2.23775e-06
6.24961e-10
4.466e-13
-1.4893e-13
2.4236e-12
1.97754e-11
-1.94128e-12
-1.98044e-11
-2.27416e-11
-1.99167e-11
2.29262e-11
2.02876e-11
1.48962e-13
-1.48929e-13
-1.83452e-13
1.49764e-11
-5.1244e-13
-1.27205e-12
7.44688e-13
-1.45159e-11
4.64661e-13
9.40142e-13
-4.46866e-13
1.48808e-13
-6.10581e-13
-3.09577e-11
1.99975e-11
-1.9706e-12
2.94465e-13
4.56133e-12
-3.59373e-11
6.61217e-11
-9.52568e-12
-6.04608e-12
-2.3319e-11
-1.79067e-07
2.3308e-06
6.57791e-08
-1.22125e-08
-1.29061e-07
-1.06839e-05
3.02652e-08
-4.7185e-12
1.45742e-13
7.19259e-10
-0.000316138
-1.03421e-06
2.9141e-13
-5.22717e-12
7.64894e-10
-0.000326057
-1.08361e-06
1.79979e-11
1.45216e-13
7.20991e-10
-0.000316683
-1.08707e-06
1.4515e-13
2.27451e-11
7.57342e-10
-0.000325749
-1.07204e-06
-3.04555e-11
0
1.35097e-10
-0.00029114
-4.3942e-07
6.48912e-12
-5.80661e-12
4.06067e-12
6.98771e-10
-9.83204e-09
-7.51067e-10
1.5236e-10
2.6472e-09
1.07317e-08
-4.40761e-12
-1.48875e-13
4.46835e-13
-5.67058e-13
1.77169e-11
-1.28421e-11
-1.81428e-11
1.38874e-11
-9.85008e-14
-4.55006e-14
6.98085e-14
-1.48971e-13
-7.44577e-12
-2.05718e-11
-1.37124e-11
3.30687e-13
3.80374e-13
-1.05683e-12
-6.90722e-13
1.20035e-13
4.00316e-14
0
-3.46676e-11
-2.29845e-11
2.88888e-11
-2.83538e-11
2.84634e-11
-2.89061e-11
-2.98005e-11
3.03006e-11
2.39998e-13
-4.46462e-12
-1.47353e-13
-3.38884e-11
-3.53771e-11
-7.11761e-11
1.12794e-12
-8.02764e-11
-1.18096e-12
3.99896e-13
5.01473e-11
-2.87321e-11
6.98024e-12
4.49276e-11
-5.93621e-11
-9.43848e-13
0
5.79035e-13
3.00052e-13
-2.65094e-11
-3.6573e-13
0
-6.65961e-12
1.35151e-11
1.02746e-13
5.85457e-11
-1.04204e-11
1.01833e-11
4.18276e-12
-5.71012e-12
-3.64231e-13
-1.84688e-11
2.16744e-11
2.0789e-11
1.43545e-13
9.5048e-13
-3.18355e-11
1.48876e-13
-4.37038e-13
7.19421e-13
-2.74739e-11
2.72494e-11
-3.1305e-11
3.11348e-11
-3.45347e-11
3.64088e-11
1.30991e-11
-1.6979e-11
-2.22124e-11
3.44828e-12
2.25058e-11
1.3674e-11
3.1098e-14
-1.99512e-11
-1.40755e-11
2.01521e-11
1.44489e-11
-1.78683e-11
1.45043e-11
1.79315e-11
-3.18175e-11
-2.3384e-13
7.54962e-12
3.80766e-13
9.59473e-12
-1.54031e-13
2.97875e-13
5.20727e-12
-4.28199e-11
3.27482e-11
1.99273e-12
-1.95626e-12
-4.01378e-11
3.9955e-11
-1.47092e-12
4.08536e-13
-2.99097e-11
1.4729e-13
3.44441e-13
-2.60682e-13
-5.79757e-13
-5.8972e-13
7.48187e-13
1.26364e-12
5.7499e-11
-7.98636e-12
-3.37286e-11
-1.45264e-13
-4.51816e-11
6.24021e-11
3.92399e-12
-1.85922e-11
-2.97758e-11
-3.0281e-11
-4.13216e-14
-4.71658e-11
8.67169e-13
1.44554e-13
-3.38763e-11
4.55326e-11
-3.59537e-12
-2.74623e-12
-2.20859e-11
-3.92104e-11
3.14059e-11
-1.53807e-11
-2.65902e-11
1.62091e-12
-2.70004e-11
5.90475e-11
-6.02056e-11
1.47352e-13
1.53313e-11
9.72501e-12
1.30152e-12
1.02169e-11
-1.07728e-13
-3.69691e-11
-3.20118e-12
3.80872e-12
3.65459e-11
-2.29211e-11
2.97845e-13
3.02649e-13
7.47402e-13
3.78181e-13
-1.30491e-12
-6.91958e-13
1.73426e-11
-1.19421e-13
-1.74163e-11
8.93643e-13
-5.9558e-13
1.70599e-13
2.94097e-13
-1.62755e-13
-1.58563e-13
1.41219e-11
-1.50179e-11
-1.38666e-11
1.50035e-11
0
1.4877e-13
-2.38324e-14
5.95492e-13
3.05718e-11
-6.8616e-11
3.79701e-11
2.17558e-13
2.94211e-13
2.90412e-13
-7.43998e-13
-7.21647e-12
-6.91274e-13
-2.33494e-11
8.30848e-11
6.84278e-11
-5.86501e-13
-7.54257e-11
1.92185e-12
7.16078e-13
1.47274e-13
2.36733e-11
1.83079e-11
-2.5606e-11
-2.68951e-12
-3.64518e-11
-5.63557e-12
-9.64234e-13
4.59434e-13
1.47281e-11
-2.05183e-11
-7.22565e-13
6.54879e-13
3.25141e-11
5.8731e-13
-1.30052e-12
3.3414e-12
-1.32675e-11
-2.4644e-11
4.15748e-11
-5.22928e-12
2.90244e-11
4.80131e-11
-9.6201e-11
1.13334e-13
9.87036e-12
0
-7.84729e-15
-9.06107e-13
2.73435e-11
1.8527e-11
-4.57827e-11
2.71196e-11
-2.75273e-11
-5.89782e-13
-3.22962e-11
-1.4891e-13
2.20454e-11
2.11634e-11
-4.32888e-11
-2.05918e-11
2.07875e-11
-1.73045e-13
3.127e-13
-1.04365e-12
-1.04252e-12
5.95574e-13
7.37204e-13
-2.14125e-13
2.61702e-13
-1.27068e-15
-5.85885e-14
-5.33465e-14
-1.11453e-11
-6.1797e-12
5.21263e-12
6.69416e-12
-2.92987e-11
2.88599e-11
-6.91836e-13
-4.3602e-13
-2.73179e-13
2.44973e-13
2.94195e-13
4.1977e-11
-6.54724e-12
-1.47291e-12
-3.18127e-13
-2.20551e-11
8.98597e-11
-1.05836e-12
-9.70832e-13
1.29502e-12
5.26543e-11
-3.00788e-11
-9.27922e-12
-3.0655e-11
1.17747e-11
-4.93244e-11
1.45346e-13
-7.55392e-12
-1.92264e-11
-1.82804e-11
1.00535e-12
-1.23801e-11
5.05934e-12
-8.67426e-13
2.5422e-14
3.86948e-12
6.67902e-12
-5.7823e-13
0
-7.48264e-15
-8.57341e-11
-1.42962e-11
7.99053e-12
-1.47359e-13
-1.12794e-11
2.80597e-11
-1.39786e-11
-1.76779e-12
4.46455e-13
2.74239e-13
2.77946e-11
1.12039e-11
-3.94323e-11
-2.84263e-13
-2.92337e-13
1.9696e-12
2.07616e-13
3.86957e-12
1.4891e-13
1.42527e-13
-1.35201e-14
1.04267e-13
-1.41653e-13
8.90724e-14
-3.2345e-14
1.60813e-13
-1.99392e-11
-1.99572e-11
0
2.19879e-13
-3.42015e-13
1.29343e-14
2.35528e-13
-7.821e-14
6.64843e-14
2.82096e-14
5.42728e-14
1.48946e-13
-1.48766e-13
3.70555e-13
-2.55246e-13
7.6922e-13
-2.04004e-14
4.14117e-13
1.18038e-12
-8.82347e-13
6.35334e-14
-4.91082e-12
1.47355e-13
-1.54956e-11
1.02021e-13
3.47651e-12
3.01251e-12
-8.73448e-11
-5.85796e-11
1.01683e-12
1.60277e-11
-4.42079e-12
3.44774e-11
7.19701e-12
1.3311e-12
5.80728e-13
-2.32733e-11
6.22709e-12
-3.14362e-11
1.2851e-11
-4.47696e-11
7.81971e-12
-2.89652e-13
3.83456e-11
-5.08208e-11
-4.12622e-11
1.88256e-12
-7.27546e-12
2.60112e-11
-4.53216e-11
-1.7486e-12
-4.80022e-12
2.91877e-11
4.25201e-11
-2.32951e-11
-3.97808e-11
4.86332e-12
-1.63712e-12
-9.10267e-12
1.0264e-11
-2.83588e-13
3.2326e-13
-4.78099e-14
3.75559e-11
1.28008e-13
-4.04257e-12
-9.22812e-12
-1.48925e-13
-2.53069e-14
4.00897e-13
-1.50545e-11
-1.64083e-11
1.56514e-11
1.56015e-11
-7.48286e-13
-2.00288e-11
-2.10021e-11
-2.97865e-13
1.65134e-13
2.77733e-13
-1.47819e-13
-1.50453e-13
-1.77856e-13
9.31085e-14
1.82471e-11
-1.55412e-13
-1.80258e-11
2.82741e-11
-7.59321e-12
3.0048e-11
6.07701e-13
3.0654e-13
-5.27532e-13
-1.29828e-13
7.313e-14
1.68252e-13
7.44283e-13
3.83427e-12
3.93303e-12
-5.69429e-13
2.96332e-13
-7.10642e-13
1.79486e-12
1.29997e-10
5.39818e-11
0
-5.89987e-13
-1.31198e-12
-4.57579e-11
9.34673e-11
3.87587e-12
0
-4.35677e-13
-8.96581e-12
-8.8766e-11
-3.68492e-13
5.51837e-12
4.35701e-13
1.22111e-12
-5.45248e-12
-8.12116e-13
4.35664e-13
0
-3.11996e-11
4.36076e-11
5.65266e-12
1.45769e-13
0
-2.41344e-13
5.28691e-11
-1.27105e-11
1.47494e-13
-5.80634e-12
-8.06261e-13
-6.52957e-12
-8.2928e-12
2.86183e-11
-2.8541e-11
-5.13021e-13
3.89012e-11
-4.84145e-11
1.90571e-11
1.81731e-11
2.42164e-13
-3.18904e-11
-1.16588e-13
1.35578e-11
-1.92863e-13
9.49908e-12
-8.49733e-14
-9.93027e-12
-2.97966e-13
0
-5.02902e-13
4.78084e-14
1.05613e-13
9.32885e-14
4.24996e-15
-4.85478e-12
-4.32158e-15
6.13427e-13
-4.46957e-12
-2.12845e-11
-2.03356e-11
2.71031e-11
-2.80267e-11
4.44541e-11
-4.41135e-11
-2.70177e-13
-8.83651e-13
5.08073e-13
5.80606e-12
4.71936e-12
-2.26264e-13
5.25379e-13
4.01245e-13
-4.2067e-13
3.85698e-13
5.32463e-11
8.02755e-13
-2.86273e-11
6.04652e-12
-2.53471e-11
-6.3722e-11
2.10956e-11
7.29413e-14
1.8935e-12
5.94725e-12
-9.83787e-12
2.48747e-11
2.2112e-13
9.71809e-12
1.45061e-13
3.68128e-11
-4.44471e-11
3.72111e-11
3.07502e-11
7.28426e-13
6.60427e-13
3.943e-11
3.29668e-11
-1.35459e-11
-1.91767e-12
-2.45453e-11
1.86539e-11
-2.35366e-12
-5.89946e-13
-9.97668e-12
-4.40831e-13
-7.14181e-13
-3.26187e-11
3.2948e-11
-9.77696e-13
2.00653e-12
-3.04341e-11
-1.16803e-11
8.04111e-12
-1.68346e-11
-1.35446e-11
1.7005e-11
1.33028e-11
-8.21525e-14
2.6388e-13
1.97986e-13
1.22413e-13
2.1166e-13
-4.47009e-13
0
6.61848e-13
1.80197e-13
-4.49449e-13
4.17249e-13
-1.38969e-11
1.35554e-11
1.37435e-11
-1.41665e-11
1.48972e-13
-4.00343e-11
-5.50424e-12
-5.92848e-11
-1.54565e-11
4.54284e-11
-3.69703e-11
3.75701e-11
3.19962e-13
-1.51949e-11
8.9302e-13
0
3.87485e-13
-1.88558e-12
1.73739e-12
1.35472e-13
-5.55793e-11
-2.91591e-11
5.76508e-11
-1.93446e-13
5.89419e-13
4.94364e-12
-3.07237e-11
-1.19549e-11
5.30112e-11
-1.26467e-11
-4.91902e-12
9.38995e-13
-7.47995e-11
-3.92858e-11
6.65459e-12
2.25708e-11
2.23762e-11
1.89409e-12
-1.11403e-11
6.51013e-12
-5.23523e-12
1.02651e-11
-3.72555e-11
-1.08566e-11
-1.06124e-11
1.4447e-11
2.88745e-11
4.027e-12
-1.1834e-11
-3.71402e-11
-1.057e-11
2.75209e-11
1.7514e-11
-2.80714e-12
-1.17322e-11
-2.98537e-11
3.73651e-11
-7.60858e-12
-3.27207e-11
-2.6651e-11
1.48969e-13
-1.72237e-13
-2.03649e-11
-4.01024e-13
2.03451e-11
1.32088e-13
-7.6656e-14
2.01471e-14
6.53175e-14
1.48999e-13
0
1.54284e-11
-1.46177e-11
-1.53272e-11
6.29251e-13
-1.46836e-14
1.40665e-11
2.90727e-14
-2.19747e-14
1.48977e-13
1.4883e-12
-8.95012e-14
-8.93349e-13
7.44285e-13
-2.33459e-13
-1.56028e-13
-4.00748e-13
2.69051e-11
-2.7417e-11
5.95317e-13
4.56768e-12
-1.04548e-11
8.39744e-11
1.73955e-12
5.89797e-13
2.42934e-12
-3.92875e-13
5.97089e-11
1.08912e-11
3.34414e-11
-6.39371e-12
2.1898e-13
3.61971e-11
3.33609e-11
-8.7169e-13
6.65007e-12
-3.72369e-11
5.41943e-11
8.86373e-12
4.48122e-12
-4.9156e-12
-1.31215e-12
3.28544e-12
1.24768e-11
-5.78264e-12
3.0088e-11
2.42903e-11
2.95701e-11
3.59579e-11
-3.54559e-11
-2.94798e-13
6.92746e-12
-1.06471e-11
1.55884e-11
-1.88629e-11
2.97739e-13
8.79863e-14
4.16903e-11
-4.135e-11
-3.55142e-11
3.53585e-11
-1.41899e-13
0
-1.74783e-13
5.80695e-12
-7.44865e-13
1.08861e-13
1.12363e-12
1.99778e-11
-9.66323e-13
-1.48778e-11
2.04336e-11
-5.31243e-12
-2.02826e-11
1.49011e-13
1.53492e-11
1.4591e-11
-6.84051e-13
9.93827e-14
1.68091e-11
-1.99185e-14
-1.66462e-11
2.01565e-14
-2.60057e-13
0
2.33753e-11
-6.91614e-12
3.03912e-11
9.02826e-14
2.10233e-13
-1.1278e-12
6.49663e-13
0
-2.86632e-11
2.85839e-11
2.94799e-13
-5.85566e-11
8.05424e-11
5.81139e-13
9.1432e-11
6.3542e-11
-8.22145e-11
-5.89501e-13
-3.70743e-11
5.01069e-12
-2.07896e-11
-2.34055e-11
5.17783e-12
1.62815e-11
8.72116e-13
1.44649e-13
-2.31363e-13
1.15297e-12
1.17949e-11
1.18605e-11
2.89316e-13
-5.88195e-14
-1.09866e-11
9.90841e-12
1.76489e-11
6.39849e-12
-1.1006e-12
4.19189e-12
3.01258e-11
-4.9445e-12
-4.42325e-13
-1.54754e-12
-5.75551e-13
-3.23572e-11
3.55367e-11
6.40294e-12
3.96044e-11
-5.10546e-11
1.04647e-11
-4.54463e-11
1.42047e-11
-1.06118e-12
3.27948e-11
2.94255e-11
3.08343e-11
-1.49017e-13
-4.48728e-12
5.07762e-13
1.78013e-11
-2.77819e-13
-1.33898e-11
-1.11146e-13
-1.54053e-11
1.42518e-13
1.53538e-11
5.0706e-12
6.69487e-15
-5.72109e-12
-4.80976e-14
4.16284e-13
2.22571e-13
1.11339e-13
-1.62251e-13
-1.63192e-11
-1.65536e-11
-4.32167e-12
3.04143e-13
2.97993e-13
4.15187e-13
-8.74032e-14
2.68525e-11
-2.76294e-11
3.58798e-11
-3.64421e-11
-4.76816e-12
-1.84535e-11
1.64696e-11
1.19756e-12
-6.10093e-11
-2.35867e-12
-1.3601e-12
-5.82617e-11
3.86552e-13
1.01885e-11
5.90366e-12
-1.4574e-13
3.6894e-14
-2.26417e-12
-9.36832e-12
0
-1.66832e-11
-3.77679e-11
2.62926e-13
1.17801e-11
1.94381e-11
0
2.96713e-11
-1.44341e-11
-1.20936e-11
4.06252e-12
2.84232e-11
2.84462e-11
8.74727e-13
1.1671e-11
-2.20151e-11
-1.47649e-13
-3.89219e-11
6.27106e-11
0
2.65835e-12
-2.53348e-12
-1.37027e-11
-2.98972e-11
2.90036e-11
-2.37798e-12
3.60182e-11
-3.34081e-11
1.46307e-12
4.28896e-13
4.62186e-11
0
-1.42324e-11
-1.41543e-13
1.43082e-11
-1.41649e-13
7.5215e-14
4.72083e-13
-1.51051e-13
-1.7911e-13
4.47521e-13
0
2.22152e-13
7.98869e-14
-2.29489e-13
9.37802e-14
4.35971e-14
-8.6651e-14
-8.69349e-14
-2.06269e-11
-2.07468e-11
8.20876e-12
-4.98291e-13
5.96371e-13
-1.56562e-13
2.05038e-13
-2.96224e-13
-9.70888e-13
4.74861e-13
-3.6796e-11
-1.46251e-11
4.44584e-13
6.48537e-12
-7.42023e-11
5.21683e-12
2.39085e-13
2.08754e-12
-1.13394e-12
-8.03046e-11
-5.60172e-11
5.92679e-13
2.46644e-11
-2.271e-11
5.16811e-11
-2.3287e-11
0
-1.72724e-11
2.27737e-12
-3.21169e-12
2.84883e-12
-7.61065e-12
5.85524e-13
6.70592e-13
3.16988e-11
1.74837e-11
-4.68399e-12
1.1746e-12
3.67619e-11
-4.84326e-11
2.51099e-11
-4.69835e-12
-6.22465e-12
-4.42604e-13
3.09934e-11
-3.94258e-11
4.74331e-12
2.67144e-11
-8.79733e-12
-7.55049e-12
3.5021e-11
1.10562e-14
3.10211e-13
1.9334e-13
-8.76535e-13
7.51908e-13
-6.42011e-12
-1.20883e-11
-1.1892e-11
1.64683e-11
2.4912e-13
-1.64588e-11
-4.23844e-14
3.08571e-13
1.68416e-11
-3.97307e-13
-1.687e-11
-2.98453e-13
1.48714e-11
3.40456e-13
-1.44499e-11
-1.04449e-14
-1.96015e-11
-1.99119e-13
1.93002e-11
3.84198e-13
0
1.49299e-13
7.02837e-13
-5.97851e-13
8.46679e-14
-2.07511e-13
1.29259e-13
-6.14597e-13
5.24621e-13
2.50578e-12
-5.52326e-12
4.31586e-12
-8.91874e-12
-2.87016e-11
4.38733e-13
-5.39885e-13
-3.81928e-13
-6.66121e-13
-2.01792e-13
1.04506e-11
1.90459e-11
1.45271e-11
3.90853e-11
-9.61122e-11
1.38982e-11
2.96408e-13
4.44279e-12
4.30534e-13
-9.58025e-12
8.01325e-12
-1.18452e-11
3.31737e-11
2.13917e-11
-1.49836e-12
-8.65583e-12
2.60607e-11
9.33951e-12
-9.86123e-13
2.54343e-12
1.15026e-11
1.03756e-12
-8.48313e-12
1.90779e-11
2.90319e-13
-2.30097e-12
-8.92995e-13
2.56762e-11
2.61402e-11
-2.27263e-13
-1.66586e-11
6.0123e-12
-1.78988e-13
-2.8514e-11
2.96938e-11
2.50237e-14
-2.2996e-11
-1.49187e-13
-1.51973e-11
-1.13555e-13
1.51954e-11
1.47295e-13
4.28555e-14
1.39139e-13
5.37528e-13
1.27568e-14
-7.46162e-13
-1.23576e-11
-6.07046e-12
2.64616e-11
1.99992e-11
2.99027e-14
5.45673e-13
1.73872e-11
-6.13927e-13
-1.74817e-11
1.48867e-13
-1.16123e-11
5.26743e-11
-5.85477e-11
5.80842e-11
-3.92855e-11
2.74551e-11
-2.76412e-11
6.25236e-13
2.7884e-14
-2.36661e-11
-1.48607e-13
-2.62375e-13
0
-1.87446e-11
2.18752e-11
1.86868e-11
1.51944e-11
-5.26912e-11
-4.21722e-11
2.45148e-11
-1.48355e-13
-2.41077e-11
1.53413e-12
3.41312e-11
-7.4268e-11
4.32708e-11
-9.81557e-12
2.85681e-12
3.70202e-13
5.78475e-12
-7.41545e-13
8.75175e-12
8.52081e-11
1.01455e-11
-3.31507e-13
2.98662e-11
-2.12601e-12
-3.59997e-11
4.13937e-11
2.52083e-11
-2.66957e-12
-3.58038e-11
4.71537e-11
-1.06384e-11
2.90125e-13
-8.2494e-13
0
-6.61718e-11
-1.37414e-11
1.48288e-13
-4.45072e-13
-2.87842e-13
-1.56762e-11
-1.78519e-11
-3.90417e-12
3.71873e-11
-3.25239e-11
4.27503e-11
-3.76782e-11
6.37858e-12
-8.47002e-12
-1.62008e-12
-5.0997e-13
-1.70753e-12
6.98909e-11
8.60558e-13
-2.33571e-12
2.16982e-12
8.95665e-12
2.08036e-12
-2.38168e-12
2.32364e-13
-3.8335e-11
3.83798e-11
-1.61566e-12
1.38135e-12
-3.61744e-11
3.64766e-11
1.04055e-13
-2.53101e-12
2.97691e-13
2.50259e-13
-3.6688e-14
1.43404e-11
-6.27822e-13
4.75102e-13
3.06371e-13
-1.43459e-11
-3.48148e-13
0
-1.48471e-13
-2.85595e-12
-1.14889e-13
-4.26975e-13
-1.8737e-11
3.45883e-12
3.77137e-11
1.4377e-11
-2.14579e-12
2.52379e-12
1.75081e-11
-2.09555e-11
-1.82695e-11
2.05776e-11
6.91025e-13
-2.61542e-11
-1.13212e-11
2.63565e-11
-1.98428e-11
7.56612e-12
1.4817e-13
5.05929e-12
-8.99573e-12
-3.43612e-11
3.39608e-11
-1.00022e-11
1.03815e-11
4.5415e-13
9.5261e-12
-1.48147e-13
0
7.37637e-12
1.09002e-13
-6.39147e-12
7.08986e-12
2.92717e-11
-2.94148e-11
-1.89982e-13
-1.21688e-11
-1.70195e-11
-1.4798e-13
-2.95151e-13
-4.4377e-11
1.78069e-11
1.01925e-13
-6.54237e-12
1.44146e-13
-3.99773e-11
1.3316e-11
-2.95927e-13
1.83497e-11
2.89997e-11
-1.05173e-11
1.99503e-11
-1.85856e-11
-9.30506e-12
-7.61096e-14
3.79774e-11
-5.9754e-12
-1.68681e-11
1.92424e-11
-1.20722e-11
-2.50908e-11
-2.50618e-12
6.04307e-11
-1.03043e-11
-6.57514e-11
3.75615e-11
1.09518e-11
-1.48007e-13
-2.77197e-11
-2.31334e-11
-2.9407e-11
2.92694e-11
-4.59218e-13
-2.86896e-11
2.72963e-11
-3.84902e-13
-2.92142e-11
1.92705e-12
1.48374e-13
2.01307e-14
3.50003e-11
-5.53158e-13
-1.8787e-11
-6.31103e-12
-1.76903e-12
-2.07169e-11
1.99132e-11
2.15158e-11
1.82588e-11
1.5394e-11
-1.13545e-13
1.94266e-11
1.04258e-13
-1.64895e-11
-1.03593e-12
-1.91161e-11
2.57421e-12
2.06364e-11
-7.41011e-13
-1.16948e-12
-3.00233e-12
1.78083e-13
2.63688e-12
-2.23355e-14
9.77254e-14
4.48723e-13
7.24754e-13
-1.48196e-13
-1.4812e-13
1.14651e-13
-1.559e-14
8.37141e-14
5.46746e-14
-4.37046e-14
-3.5022e-14
-5.90377e-14
-3.46819e-14
-1.48112e-13
-5.18023e-12
-5.16335e-12
2.8556e-13
-2.06803e-13
1.89392e-11
1.09955e-13
-3.32324e-11
1.63677e-13
1.41787e-11
0
3.00284e-11
1.53164e-11
-1.76214e-11
-2.0615e-11
2.60777e-12
2.08079e-11
1.01713e-13
2.19105e-13
-9.27339e-14
-2.95839e-13
-2.07056e-11
9.19766e-14
2.0771e-11
4.91814e-13
-2.55233e-13
-6.2326e-13
-3.36551e-13
-1.88667e-11
3.83494e-13
1.87834e-11
4.4369e-13
-1.77731e-11
-6.17477e-13
1.8351e-11
-3.63609e-14
-1.32642e-11
1.69284e-13
1.3019e-11
-8.68004e-14
0
-1.47925e-13
-2.28545e-11
5.90257e-15
2.19823e-11
-2.57598e-14
1.40741e-11
1.33889e-13
-1.36599e-11
-2.33063e-13
0
-1.46534e-11
-1.48007e-11
1.01084e-13
7.33e-14
-4.009e-14
-2.14086e-11
1.63172e-14
2.13798e-11
2.1324e-13
1.48019e-13
0
2.6192e-14
1.61484e-11
-7.54421e-14
-1.64174e-11
2.2735e-11
3.97023e-13
-2.26845e-11
1.9935e-13
1.48122e-13
0
-4.53928e-13
-2.02171e-14
3.32292e-13
-3.92087e-14
6.66142e-13
4.92232e-14
-5.47124e-13
1.52609e-14
0
1.48052e-13
1.36342e-11
3.2415e-13
-1.36685e-11
2.04837e-13
-8.5193e-14
-1.52091e-11
-3.85345e-13
1.46973e-11
1.48051e-13
0
-6.30888e-13
1.3803e-11
7.0985e-13
-1.38866e-11
5.15052e-12
-1.89216e-13
-5.28914e-12
-3.81635e-14
1.48001e-13
1.46461e-11
1.47017e-11
1.47607e-13
2.2564e-13
-2.99365e-13
-1.3478e-13
-1.3605e-11
-1.37053e-11
1.38661e-11
1.36105e-11
1.3902e-11
1.4198e-11
-1.82436e-11
-1.35921e-11
1.4825e-11
1.04268e-11
-1.51048e-11
3.21997e-12
1.87626e-11
1.47898e-13
-1.50833e-11
-1.60516e-11
1.41894e-11
3.44919e-11
2.55938e-11
-1.95545e-11
-2.61757e-11
5.90449e-13
1.9157e-12
7.3943e-13
1.47875e-13
-2.92297e-14
-1.83144e-13
1.68116e-13
5.88457e-13
-3.61474e-16
5.10099e-13
-2.85263e-13
-8.71918e-13
-1.47888e-13
-1.90781e-11
-1.43724e-11
1.8886e-11
1.43038e-11
-1.92315e-11
-1.95923e-11
1.94921e-11
4.66418e-12
-1.37149e-13
1.47905e-11
1.47939e-13
1.14545e-13
-1.19051e-14
4.25037e-13
-1.22378e-13
-6.37056e-13
-1.26213e-13
1.53061e-13
1.52162e-11
1.50908e-11
-1.87957e-11
-1.7867e-11
1.87565e-11
3.75955e-11
6.58464e-13
-2.01538e-11
-6.38023e-13
1.87085e-13
-5.00253e-14
0
1.48043e-13
-8.28235e-13
-2.95295e-13
1.09428e-12
-1.60695e-11
-3.52836e-13
-2.50779e-12
2.32104e-11
1.84083e-11
-2.26518e-11
-1.4945e-11
-1.47175e-11
5.17132e-13
-4.35978e-13
-4.70612e-13
5.68462e-13
-3.45677e-13
-2.2272e-13
3.10773e-13
-1.47972e-13
-4.43829e-13
1.94504e-11
2.01325e-11
-4.87309e-13
-1.74057e-11
6.03622e-14
1.68565e-11
1.49094e-11
3.48647e-14
-1.47946e-11
-1.62701e-12
1.4456e-11
2.88092e-12
-1.34758e-11
-7.12947e-13
1.35776e-11
3.2477e-11
2.23815e-15
-1.85953e-11
-1.47914e-13
8.87305e-13
1.17557e-12
1.44022e-13
-2.00644e-11
-2.15354e-11
2.00851e-11
2.16291e-11
-3.82652e-14
4.56895e-13
5.9157e-13
1.81883e-11
1.78599e-11
-3.86245e-13
-1.7707e-11
1.61913e-13
1.79459e-11
-1.58124e-11
1.41287e-11
1.8901e-11
-1.03519e-11
1.81882e-11
-2.75056e-14
-1.80211e-11
2.51322e-14
1.06641e-13
-1.12642e-13
-2.33262e-13
1.75389e-13
1.38707e-11
1.36055e-11
0
1.4731e-11
-1.47623e-14
-1.56557e-11
1.48331e-13
-8.4705e-14
-3.25672e-14
1.89102e-11
-1.07312e-13
-1.8339e-11
-1.47907e-13
2.04518e-13
-9.37749e-14
-1.9013e-11
-1.13373e-12
1.91498e-11
3.70341e-13
-4.1586e-13
5.91992e-13
2.95836e-13
-1.47939e-13
-1.80239e-13
-5.65008e-14
2.81701e-13
-2.42233e-14
-8.4291e-14
1.16426e-15
-1.45272e-11
-2.95668e-13
1.44989e-11
2.95928e-13
-5.50371e-14
-3.86369e-13
-7.23966e-14
1.59585e-13
2.83285e-12
-6.90683e-15
-2.80041e-12
2.14659e-13
0
-8.94951e-12
-9.66574e-12
-6.3015e-13
1.00919e-12
-2.94367e-13
-9.08034e-13
2.11293e-13
-6.16031e-14
-8.47421e-14
-3.6957e-13
-7.38528e-14
-1.81912e-14
-3.02937e-13
1.57391e-11
-4.95388e-12
-1.62417e-11
5.01254e-12
4.64468e-13
2.36566e-13
2.2176e-13
-5.17546e-13
-9.48551e-14
-1.33989e-11
-1.66675e-13
-4.14812e-12
-1.48805e-11
1.81617e-11
1.49038e-11
1.97741e-13
2.21788e-13
-7.38254e-14
-5.69443e-13