/*--------------------------------*- C++ -*----------------------------------*\
  =========                 |
  \\      /  F ield         | OpenFOAM: The Open Source CFD Toolbox
   \\    /   O peration     | Website:  https://openfoam.org
    \\  /    A nd           | Version:  10
     \\/     M anipulation  |
\*---------------------------------------------------------------------------*/
FoamFile
{
    format      ascii;
    class       volScalarField;
    location    "0.8";
    object      gradTy;
}
// * * * * * * * * * * * * * * * * * * * * * * * * * * * * * * * * * * * * * //

dimensions      [0 -1 0 1 0 0 0];

internalField   nonuniform List<scalar> 
47104
(
4.37803e-13
4.37779e-13
2.88613e-13
-9.20384e-15
-4.45675e-13
2.97116e-13
2.00666e-11
3.07238e-13
-2.88822e-13
-1.52168e-11
6.04907e-13
4.36832e-13
6.73704e-13
5.04216e-12
-2.60679e-13
-5.6433e-13
-1.95528e-13
-1.57552e-13
1.25195e-13
3.07628e-13
1.39957e-11
6.87992e-13
3.14768e-14
2.0725e-13
5.22688e-13
5.79697e-14
-2.01553e-11
-1.04742e-12
-4.27947e-14
1.52529e-11
1.50119e-13
3.07703e-13
-9.81717e-14
-4.93975e-12
3.54009e-13
4.86824e-13
4.8656e-14
1.47298e-13
-2.90091e-13
-4.07484e-13
-1.44457e-11
-7.02995e-13
1.07908e-12
-1.17306e-13
1.16798e-12
1.26524e-13
4.38218e-12
3.83547e-13
1.53668e-11
-3.60258e-13
-3.64135e-13
1.39103e-11
-3.46931e-13
2.46253e-15
-1.11339e-13
-2.94533e-13
-6.40098e-15
1.27164e-13
2.72914e-12
1.2461e-13
8.81774e-14
3.49682e-13
-8.25929e-13
-4.62338e-13
-2.08577e-11
2.44905e-14
-4.53008e-12
-7.91412e-14
-1.55326e-11
5.21497e-13
1.98883e-13
-1.37e-11
-2.60177e-14
8.12591e-13
1.59283e-13
2.51101e-13
-1.00785e-13
1.58217e-11
-2.90841e-12
1.63401e-11
-2.16963e-14
-2.47476e-13
3.93459e-13
1.60857e-13
2.04611e-11
-1.49967e-11
-1.58003e-14
-7.21981e-13
-1.4221e-11
-5.68907e-13
9.51284e-15
1.39735e-13
4.37336e-13
-7.34223e-13
1.48533e-13
-1.54478e-11
1.57886e-13
-1.62411e-11
-1.43193e-11
-1.62417e-11
-8.91003e-14
0
-2.53863e-11
-1.01474e-11
1.49178e-13
-1.49177e-13
2.10409e-11
1.38874e-11
-1.64278e-11
6.01163e-14
-1.21128e-11
-8.23779e-14
1.39548e-11
7.32808e-12
4.48731e-12
-5.123e-12
-6.24378e-12
-4.78872e-12
-1.8265e-17
-4.41381e-13
-3.47331e-13
-1.14037e-13
2.41439e-11
1.73535e-11
-4.89917e-13
-2.49477e-13
-2.73594e-11
-1.84396e-11
1.66469e-12
-1.55988e-11
1.26798e-11
6.36799e-14
4.63356e-14
-3.2508e-11
1.38955e-12
4.24481e-11
-9.10005e-15
-5.06377e-14
1.67434e-13
-1.67533e-11
-1.38346e-11
-1.07432e-13
3.69293e-11
3.30446e-11
-9.3431e-13
-4.19827e-11
8.47039e-13
2.29084e-13
-3.43895e-12
1.3047e-12
-1.45773e-11
2.00319e-11
-3.63819e-11
-1.04917e-13
8.22582e-13
4.53536e-14
-5.98503e-13
-4.30418e-13
-1.64512e-11
3.15006e-11
1.42399e-11
-5.47686e-15
-3.05383e-11
-2.78686e-11
3.01462e-11
2.11499e-13
5.10495e-13
3.14203e-13
1.83008e-11
1.43212e-11
1.42313e-11
-5.54193e-12
3.00024e-11
2.79238e-11
-3.20619e-11
-1.06228e-12
1.8806e-13
-6.00728e-14
1.62069e-11
-2.91719e-11
-1.89758e-13
-3.561e-13
3.02993e-12
-1.05417e-11
-1.12168e-13
-1.79099e-11
-1.9851e-11
-3.36682e-13
-7.20381e-14
-8.07976e-14
0
-1.44845e-11
-9.7039e-12
-2.9838e-13
4.47445e-13
-2.19255e-11
-1.43235e-11
1.19447e-12
2.98674e-13
1.40258e-11
2.09334e-13
8.06119e-12
-1.95373e-11
-1.96685e-11
-7.60079e-12
-4.47107e-13
1.04303e-12
-1.49134e-13
7.01559e-12
6.01426e-14
-4.93036e-12
-4.41588e-11
-3.61286e-11
-2.73666e-11
3.87273e-12
6.45519e-13
-1.93597e-12
-3.44167e-13
1.74851e-13
1.21603e-13
-2.29917e-13
2.76078e-11
-8.48958e-12
2.71562e-10
4.75579e-10
4.78713e-10
4.80921e-10
-3.75261e-11
-2.1118e-13
-2.42573e-13
5.21985e-12
-9.3534e-13
7.64123e-12
-2.24888e-07
-2.79191e-07
-2.85814e-07
-2.43234e-07
-1.01297e-08
-6.21254e-13
-5.82655e-14
-2.64721e-13
5.93017e-13
-3.47217e-11
-1.39082e-08
6.52452e-08
6.91888e-08
5.25187e-08
-2.01992e-09
-5.1412e-14
3.62899e-15
-3.36752e-14
2.38697e-13
3.54699e-11
3.20913e-09
-1.46724e-08
-1.57081e-08
-1.171e-08
4.82312e-10
2.70658e-13
6.92356e-14
4.6866e-13
-1.46765e-12
3.38623e-12
4.02953e-08
-1.84888e-07
-1.93408e-07
-1.53753e-07
5.64244e-09
-4.9573e-11
-2.97838e-13
-6.11051e-14
1.15637e-12
-2.85058e-12
2.46181e-08
3.96102e-08
4.05905e-08
3.68715e-08
-1.17975e-09
8.45603e-11
1.67203e-13
4.36654e-14
-2.98428e-13
1.03239e-13
-3.01185e-11
-2.59118e-13
-3.42376e-13
-2.5829e-13
3.59598e-11
-3.47819e-11
2.03574e-13
1.49184e-13
-1.82067e-11
2.1468e-11
-1.07251e-11
1.10264e-11
-5.96048e-12
-8.93881e-13
1.49113e-11
5.22405e-12
-2.98375e-13
-1.54803e-11
-2.97288e-13
-4.42999e-13
-1.84854e-11
-1.52362e-11
3.00332e-11
-1.07101e-11
-4.28183e-12
-9.80848e-12
-1.75612e-11
-1.55652e-11
-1.56083e-13
1.17067e-11
1.09146e-08
1.01835e-08
1.01284e-08
1.04548e-08
7.98494e-09
-2.8351e-11
-1.78015e-13
9.02525e-14
-2.9601e-13
-3.45322e-09
7.80477e-05
8.07814e-05
8.12961e-05
8.03594e-05
7.96988e-05
8.20939e-09
2.25188e-12
5.1105e-13
-5.50139e-11
-3.12128e-07
-0.981028
-1.5237
-1.53171
-1.51193
0.190622
2.59608e-08
5.28583e-14
-1.58299e-11
-1.28672e-11
-8.03504e-10
-0.00686327
-0.0232006
-0.0241838
-0.0220462
-0.015365
1.17044e-09
1.52986e-11
-2.15759e-13
5.29093e-12
1.51366e-09
0.0004348
0.00137636
0.00144451
0.00129849
-0.0168364
-2.66998e-10
1.02573e-13
2.99229e-11
2.91038e-11
1.35284e-08
0.0185036
0.0657851
0.0675461
0.06331
-0.0179372
-5.12209e-09
-2.26354e-14
-2.52981e-13
5.54721e-11
7.98891e-07
0.818546
1.05002
1.0539
1.042
-0.203564
-4.55397e-08
-1.63951e-13
-1.38056e-11
2.64375e-13
9.06103e-08
4.2617e-06
3.83798e-06
3.81886e-06
3.91352e-06
2.55454e-06
-7.63156e-12
3.25148e-14
-1.48842e-13
-5.94368e-13
2.67179e-11
1.89208e-11
2.59268e-11
1.2598e-11
1.27629e-11
-1.47648e-13
2.33337e-11
2.977e-13
-1.73938e-11
4.45245e-13
-6.61264e-12
-5.55945e-11
-7.01187e-11
-6.72305e-11
-4.21048e-11
8.81742e-12
-4.45151e-13
-2.82407e-12
-2.01198e-11
6.51133e-13
-5.22715e-10
-2.31856e-07
-4.52018e-07
-4.36624e-07
-4.8351e-07
1.66213e-08
-6.74007e-14
-2.1523e-11
1.71258e-11
6.1966e-12
-1.93996e-06
-0.947205
-1.14948
-1.15164
-1.14652
0.0133311
4.07045e-08
2.75819e-12
1.96189e-11
3.0995e-09
0.0256893
1.66596e-05
2.21138e-11
-1.46831e-14
1.25662e-09
0.000683505
1.19815e-06
2.28219e-11
2.28753e-14
-2.41436e-10
0.000153761
-1.9987e-07
-7.08852e-13
-3.71839e-13
-3.11205e-09
-0.00125266
-5.1999e-06
-2.32298e-11
2.23654e-13
5.48092e-10
0.00121728
2.56223e-06
2.39356e-13
-2.50719e-13
-3.1719e-11
6.73069e-07
0.000941512
0.00117322
0.00117581
0.00116273
-6.46913e-05
5.44573e-10
5.0546e-14
-1.4865e-13
5.34089e-12
-2.93804e-13
4.70216e-11
5.23295e-11
6.78044e-11
8.82692e-11
-1.38137e-11
2.44861e-11
-1.48668e-13
-1.3681e-11
-1.18848e-12
5.88189e-13
-3.974e-11
-6.79786e-11
-7.83774e-11
-5.07851e-11
1.82413e-11
1.18842e-11
0
-2.86782e-13
5.71349e-12
-6.10334e-10
-1.87178e-07
-4.77721e-07
-4.57995e-07
-5.17509e-07
1.82514e-08
-9.18138e-12
1.57775e-11
1.36983e-11
8.31283e-12
-2.10703e-06
-0.974325
-1.20004
-1.20306
-1.19577
0.0145187
4.30397e-08
-1.33826e-11
2.643e-13
3.09026e-09
0.0321294
1.96036e-05
-1.56029e-11
2.19739e-13
1.6933e-09
0.000873834
1.66151e-06
1.48922e-11
-1.86926e-13
-2.68628e-10
0.00011022
-2.7121e-07
1.49369e-11
1.45271e-11
-4.20448e-09
-0.00332546
-6.81712e-06
-4.3634e-12
9.70938e-12
2.3527e-10
-0.00154358
2.88642e-06
-1.48004e-11
-1.53317e-11
4.86286e-13
7.03263e-07
0.000966812
0.00127501
0.00127906
0.00123866
-2.49969e-05
6.70432e-10
3.14338e-12
-9.66437e-12
0
-1.32305e-12
6.43862e-11
7.12896e-11
6.81221e-11
4.80164e-11
7.05877e-12
3.26806e-11
-2.9742e-13
-1.04154e-12
-6.98837e-12
2.79629e-12
-3.78778e-11
-6.39669e-11
-5.99298e-11
-4.51549e-11
-5.00592e-12
4.90655e-12
1.54717e-11
-2.33417e-11
-8.90164e-12
-6.76375e-10
-1.69432e-07
-4.54957e-07
-4.34016e-07
-4.98199e-07
1.83251e-08
5.70283e-14
7.73676e-14
-1.28791e-13
4.13622e-11
-2.10598e-06
-0.975578
-1.20233
-1.20548
-1.19794
0.0145298
4.31927e-08
-1.59564e-11
2.21228e-11
2.87977e-09
0.0321389
1.98264e-05
-1.54047e-11
-2.11094e-11
1.83817e-09
0.000896616
1.7267e-06
8.32583e-14
2.97577e-13
-2.56031e-10
8.65498e-05
-2.82713e-07
1.54549e-11
2.12178e-11
-4.3275e-09
-0.00173925
-6.94695e-06
2.00843e-11
-2.52658e-13
3.48537e-10
0.00131573
2.89512e-06
-2.65473e-13
-1.56032e-13
-3.62656e-11
7.04515e-07
0.000969144
0.0012798
0.00128421
0.00125972
-7.00168e-05
6.7304e-10
-2.02061e-11
1.48765e-13
-1.88755e-11
1.32422e-11
2.74248e-11
8.21503e-11
8.18677e-11
4.20893e-11
-1.03021e-11
6.09584e-12
-1.48797e-13
0
3.18358e-11
-4.71233e-12
-4.8649e-11
-7.25365e-11
-9.73985e-11
-1.3802e-11
1.32589e-12
-4.90928e-12
-5.9536e-13
7.45202e-14
3.94331e-11
-6.44505e-10
-1.67369e-07
-4.5361e-07
-4.32632e-07
-4.9726e-07
1.83426e-08
2.90214e-12
-5.4157e-13
-3.53874e-13
5.65539e-12
-2.03996e-06
-0.975585
-1.20253
-1.20569
-1.19812
0.0145303
4.30099e-08
1.49238e-11
6.62683e-14
5.25067e-09
-0.00372492
1.98349e-05
4.87937e-13
7.26644e-13
2.04989e-09
0.00143305
1.72822e-06
-1.46547e-11
-1.81085e-11
-2.07918e-10
9.38601e-05
-2.8301e-07
-1.91466e-13
-1.65723e-13
-4.31764e-09
-0.00169004
-6.95519e-06
-4.50948e-13
1.89232e-11
3.68809e-10
0.00131699
2.89652e-06
2.16592e-13
-6.04875e-14
-2.94406e-11
7.00344e-07
0.000969554
0.00128025
0.0012846
0.0012572
-6.92555e-05
6.4274e-10
1.34943e-13
1.48836e-13
1.11529e-11
-2.10525e-11
5.2852e-11
8.35079e-11
7.36913e-11
6.05679e-11
-1.47271e-13
6.69435e-12
1.4887e-13
-4.46712e-13
-1.02686e-11
-3.97865e-12
-4.4346e-11
-5.71638e-11
-7.38114e-11
-5.65794e-11
-8.99173e-12
4.91109e-12
-2.97795e-13
-5.77144e-13
-3.90121e-12
-6.41414e-10
-1.79274e-07
-4.69918e-07
-4.50019e-07
-5.10779e-07
1.83187e-08
-4.82913e-13
-2.57162e-13
5.35403e-14
-1.133e-12
-2.01811e-06
-0.97525
-1.20163
-1.20472
-1.19728
0.0145392
4.29242e-08
1.17974e-14
4.39076e-13
6.08591e-09
-0.00605502
1.96307e-05
1.90522e-13
1.5013e-11
2.03196e-09
0.00137597
1.66506e-06
1.50848e-11
-3.29194e-13
-2.44325e-10
0.000107316
-2.703e-07
-7.43587e-13
-1.55279e-11
-4.24072e-09
-0.00166066
-6.81528e-06
-1.54429e-11
2.90154e-13
3.19987e-10
0.00131438
2.89469e-06
7.45265e-13
7.21962e-14
5.15689e-11
6.95498e-07
0.000969128
0.00127726
0.00128134
0.00124149
-2.49765e-05
6.68499e-10
-4.85014e-13
1.48892e-13
-5.20664e-12
-5.30323e-12
5.17517e-11
5.99058e-11
6.6569e-11
5.36594e-11
4.86298e-12
0
-7.44626e-13
-2.02542e-11
3.72134e-12
4.42461e-13
2.39001e-11
-5.08057e-12
-2.17744e-12
0
-5.31028e-12
-2.85811e-11
1.48938e-13
-1.87998e-11
6.848e-13
-6.10238e-10
-7.32893e-08
-1.1032e-07
-9.23217e-08
-1.61154e-07
1.53437e-08
-6.53453e-11
1.44204e-11
3.92165e-12
5.95243e-12
-2.08146e-06
-0.959484
-1.16703
-1.16943
-1.1637
0.0135922
3.82732e-08
1.88638e-11
1.85322e-11
1.2929e-09
0.0271533
1.39349e-05
-1.43319e-11
6.13909e-13
3.67232e-10
0.000711569
9.85649e-07
-1.90716e-11
5.06023e-13
-5.64651e-11
9.53373e-05
-1.59609e-07
2.60946e-13
3.00785e-11
-1.13272e-09
-0.00124192
-4.00012e-06
3.10232e-12
-4.72281e-13
2.58027e-10
0.00127887
2.23337e-06
2.60952e-13
-1.50646e-11
-5.90198e-12
6.82272e-07
0.000833018
0.000947962
0.000949451
0.000947005
-6.1979e-05
5.92432e-10
-2.85961e-12
0
7.14262e-12
2.65385e-12
2.27285e-11
-2.17706e-12
4.35442e-13
-2.95816e-11
-3.06743e-11
0
-4.46885e-13
0
5.95421e-13
-5.16299e-12
-1.90946e-11
5.66154e-12
-1.75648e-11
5.68373e-12
-4.86728e-12
-4.46621e-13
-2.68119e-12
3.10986e-14
-3.60994e-13
4.3529e-11
7.34499e-10
7.51183e-10
6.97151e-10
7.33386e-10
8.33993e-11
-2.06176e-11
2.12212e-14
4.20506e-14
2.97635e-13
-1.78741e-07
-0.000314339
-0.000326822
-0.000327174
-0.000326564
-0.000293672
7.3491e-10
2.59627e-12
1.09307e-13
-1.02986e-11
2.37258e-06
-9.82333e-09
1.74241e-11
1.66185e-13
-3.15264e-11
4.86344e-08
-7.14722e-10
-5.43584e-14
-1.45915e-11
2.9534e-11
1.34236e-08
7.4944e-11
-3.50352e-11
3.37736e-13
4.33714e-12
-1.31582e-07
2.61767e-09
2.3708e-13
1.40165e-11
2.0633e-12
-1.05887e-05
1.07625e-08
1.76457e-11
-3.16957e-13
4.64706e-13
3.0207e-08
-1.03397e-06
-1.08355e-06
-1.08698e-06
-1.07196e-06
-4.39742e-07
4.99135e-12
-1.49917e-13
0
-5.20844e-12
-5.89776e-13
1.85044e-11
-2.33682e-11
5.95149e-12
1.1368e-11
5.75203e-12
-2.38187e-12
1.48971e-13
-3.8718e-12
-1.36925e-11
1.4594e-11
2.90917e-13
8.10567e-12
-5.93419e-12
-1.62865e-11
2.94762e-13
-1.26531e-11
1.4895e-13
-2.09583e-11
-4.77497e-11
-1.17035e-12
1.68466e-13
2.78502e-11
-1.8425e-13
1.34087e-11
3.17594e-13
1.16757e-11
-1.53502e-11
-1.72196e-11
3.00656e-11
-2.18436e-11
6.29346e-11
-3.01577e-11
-1.58728e-12
-2.92524e-13
3.60895e-11
3.01772e-13
-4.54408e-13
-2.55766e-13
4.00076e-11
2.43101e-11
8.16792e-13
1.50976e-11
-1.42497e-13
-4.08857e-11
-9.49433e-13
-2.78847e-11
7.77308e-14
2.6919e-13
-2.00137e-13
2.41688e-13
2.81567e-11
-1.40063e-11
-1.49017e-11
3.31592e-11
3.33922e-12
-6.75478e-12
-2.27281e-11
8.23619e-14
-3.26648e-11
-5.85887e-11
4.51318e-11
1.43915e-11
1.46469e-11
2.88377e-13
-2.91228e-11
-1.30564e-11
-2.19407e-11
1.09164e-11
-6.56094e-12
-2.36557e-11
-3.94382e-11
2.28099e-11
-5.95753e-13
-2.32121e-11
-3.19744e-11
-5.23455e-12
7.38083e-12
6.22413e-12
-2.90952e-13
-3.39039e-11
-1.29495e-11
1.48958e-13
-1.48902e-13
2.38094e-11
-2.5047e-11
7.26523e-13
2.31279e-11
-1.69114e-11
1.27838e-11
-4.41957e-13
5.20945e-12
-1.60853e-11
-1.25678e-13
1.25819e-11
-2.06043e-11
-2.98077e-13
2.2451e-11
2.09374e-13
1.30539e-11
-3.07237e-11
1.88992e-12
-2.55151e-11
2.23237e-13
1.19158e-12
3.36234e-13
-1.39957e-12
2.55572e-11
1.82152e-12
-2.88313e-13
2.14569e-11
-2.11366e-12
1.57188e-11
2.27549e-11
7.93332e-13
-2.32439e-12
-2.86714e-11
2.50278e-11
-8.80806e-14
-2.11036e-13
5.89732e-13
6.51267e-11
-3.83127e-13
-1.79083e-12
8.09648e-15
5.62444e-11
-3.55163e-11
-2.00451e-11
-1.15503e-12
-8.39912e-13
1.16822e-11
-7.17553e-14
1.00463e-12
-2.86045e-11
-5.88527e-13
5.33678e-11
-2.10937e-11
3.06791e-12
1.10323e-12
3.52493e-13
8.52623e-11
4.72182e-12
-3.08277e-11
-4.71755e-11
-9.99749e-12
8.53988e-12
1.28077e-11
-1.2293e-13
7.14829e-12
2.97563e-13
-1.04576e-11
1.59788e-12
5.63657e-12
9.39553e-12
-8.71871e-13
2.93195e-11
-8.92898e-13
1.71282e-11
0
5.95208e-13
6.18759e-12
1.74337e-11
4.33547e-13
-1.44507e-13
-3.05011e-11
1.94439e-11
1.04181e-12
-4.46793e-13
5.58469e-13
7.79856e-13
-2.68727e-12
-8.50014e-14
-3.71443e-11
-1.33822e-14
-6.25438e-12
1.97486e-11
-1.93663e-12
-1.83384e-13
-1.37613e-11
0
-2.16439e-11
1.6114e-13
5.21408e-11
6.17982e-11
-1.98197e-12
7.20131e-13
-3.02003e-13
-2.16033e-11
-9.46011e-14
4.79754e-13
7.55535e-12
1.40836e-13
-1.6502e-11
1.34999e-11
-3.27762e-11
8.67181e-11
-4.4349e-13
2.10983e-11
1.04428e-13
3.06759e-11
5.07893e-13
1.49839e-13
1.63765e-11
-1.91727e-11
1.90619e-12
8.46246e-13
-2.3249e-13
6.41762e-13
-3.22288e-14
5.88814e-13
-5.8141e-11
7.29379e-13
-2.00285e-11
1.96128e-11
3.69579e-15
-1.12343e-11
2.83451e-11
-3.81001e-12
7.34117e-13
2.91805e-13
6.61472e-13
-4.37241e-13
-8.74477e-13
1.4891e-13
-1.48773e-13
2.98954e-11
2.25099e-11
-2.73086e-11
6.93585e-12
-6.10017e-12
-2.94576e-13
-1.488e-13
1.92121e-11
4.46681e-13
-5.20824e-12
0
-2.90671e-13
-2.89151e-13
-5.92718e-12
2.46983e-12
-1.0312e-12
2.20265e-11
6.10622e-12
4.49764e-13
6.09361e-13
1.34897e-11
3.38685e-11
-2.6393e-13
1.17344e-11
9.13314e-13
1.37918e-12
1.3872e-11
-8.3439e-12
1.93877e-11
2.97772e-13
-6.56145e-11
-4.55821e-11
-7.17822e-11
2.82778e-13
-3.84303e-12
-6.12207e-11
3.86503e-11
1.0759e-13
1.46666e-11
5.1783e-13
-6.79874e-11
-8.28538e-11
1.44363e-11
-1.89435e-11
2.65274e-11
-2.94938e-12
4.57429e-11
-7.20645e-14
-1.42233e-11
4.77794e-12
6.58718e-11
9.20028e-13
-1.18743e-14
-1.1751e-13
-3.19771e-11
-3.06912e-13
-9.98363e-13
2.27056e-14
4.37472e-14
-9.27283e-13
-7.64446e-14
-2.80716e-11
-2.12342e-13
-7.69707e-14
-8.55776e-13
-3.38605e-11
-1.17013e-11
-2.13903e-11
-5.87161e-13
-3.53039e-11
-2.16679e-11
2.92539e-11
-1.99416e-11
-1.4891e-13
-4.46322e-13
5.59675e-12
6.39163e-12
5.78186e-12
0
5.95602e-12
-4.41876e-13
-4.46406e-13
-1.96594e-11
0
0
-2.94827e-13
2.91028e-13
4.77944e-12
-4.77916e-12
1.4547e-13
6.19e-12
4.91171e-12
1.48946e-13
-5.37532e-15
5.67092e-13
1.4827e-11
-3.43057e-11
-9.83602e-12
-8.92521e-13
-8.17122e-14
1.06847e-12
3.54913e-11
-8.21086e-14
-1.57538e-11
3.41643e-13
2.28784e-12
-2.43967e-11
1.95879e-13
-2.37319e-11
-2.59258e-13
-2.00127e-11
-3.46978e-11
-1.76909e-11
-4.24205e-13
2.27999e-13
-1.64585e-10
3.51613e-13
-6.0513e-14
1.57458e-11
-4.07025e-13
-6.838e-11
-2.47927e-13
1.37465e-11
2.5585e-13
-2.51011e-13
-1.32502e-13
7.20731e-14
3.39403e-15
-1.75876e-11
1.66486e-12
-6.83467e-13
-3.41524e-14
3.96325e-12
9.18449e-14
7.56491e-13
4.07125e-12
-5.38143e-11
-2.32573e-13
1.75642e-11
-2.02886e-13
2.72354e-11
-7.98583e-13
-2.59694e-11
1.40716e-11
1.01275e-11
1.31665e-12
5.56844e-11
-2.07613e-11
1.48925e-13
1.48788e-12
3.09436e-12
5.81811e-13
-1.41907e-11
-2.11414e-11
7.27251e-13
4.71535e-12
-3.57168e-12
-2.07042e-11
-1.72762e-11
2.97705e-13
-2.95036e-13
0
0
-4.35705e-12
2.91569e-13
1.47512e-13
-2.23331e-11
2.97947e-13
-2.95413e-12
2.86665e-14
1.52239e-13
4.1011e-13
-3.80113e-13
-1.16005e-12
-2.33813e-12
-5.49265e-13
1.10273e-11
-1.66955e-13
1.73959e-11
8.92472e-13
-8.11715e-11
-2.34343e-11
2.27042e-11
1.93746e-12
4.07105e-12
-2.96644e-11
-5.07488e-11
-4.73315e-13
2.08513e-12
2.25599e-13
-5.43414e-13
1.34573e-11
-3.3882e-14
-3.64199e-13
-3.87974e-11
-4.10308e-13
5.2906e-13
4.5899e-13
6.38801e-13
3.81986e-11
-6.45614e-11
-8.92037e-14
2.10599e-13
4.61033e-13
4.51524e-13
-3.75836e-14
3.94017e-11
-4.37023e-13
6.65868e-13
4.98212e-13
-7.23099e-13
-3.97613e-11
5.58865e-14
-1.58093e-13
2.24552e-13
-1.20691e-12
4.23129e-12
-3.83233e-12
1.15173e-11
-1.76188e-12
1.23439e-11
4.8279e-13
-1.90943e-14
-5.9584e-13
2.93215e-11
1.0324e-12
-1.7784e-11
-5.51816e-12
0
4.9558e-12
1.82874e-11
8.18778e-12
-2.97966e-13
1.54911e-11
1.48879e-13
2.0653e-12
-1.45701e-13
7.39848e-12
-5.36742e-12
-1.45683e-13
5.60537e-12
-5.06283e-12
4.32059e-12
6.58454e-14
2.31381e-13
-3.24676e-11
4.43437e-11
2.54293e-13
2.55002e-13
2.13357e-13
-3.47873e-11
-1.68722e-13
4.83242e-12
6.52196e-12
2.97807e-13
5.08539e-11
-3.24451e-11
-4.12594e-11
4.48948e-11
-3.12468e-12
5.55381e-11
2.9284e-11
4.31483e-13
-4.70593e-13
2.73509e-11
-2.06068e-12
5.13439e-13
-3.01975e-13
-2.26906e-11
-2.67843e-11
-2.70729e-12
-2.89193e-11
2.34293e-11
8.27301e-14
-3.45517e-13
5.70171e-11
-7.48914e-13
-7.50596e-13
-1.40848e-13
-1.88638e-13
1.40074e-13
1.14723e-15
-2.3228e-11
4.653e-13
-2.94556e-13
3.63212e-13
5.85769e-13
8.05991e-13
2.07045e-13
3.37337e-13
3.9407e-12
-1.26192e-11
1.52574e-11
-1.91225e-11
9.54508e-12
5.12497e-13
1.3208e-13
5.98946e-14
-1.48979e-13
-1.62265e-11
-1.79915e-11
5.9716e-12
-7.25208e-13
0
-5.09756e-12
1.47472e-13
1.48896e-12
-1.49003e-13
2.51726e-11
4.61448e-12
-5.89677e-12
-1.93413e-11
-1.3456e-11
-1.24432e-11
1.78868e-11
-3.28734e-11
3.72189e-12
0
-3.60439e-14
-7.29237e-13
-1.03048e-12
1.06797e-11
1.10526e-11
5.31094e-11
8.46481e-12
2.76226e-11
1.2404e-11
7.09881e-13
-2.50923e-11
8.9366e-13
-8.85359e-14
-9.56922e-13
2.87721e-12
-5.45626e-11
-3.11392e-12
-4.34314e-11
-3.01964e-13
6.50433e-14
-5.04218e-13
9.03859e-14
-1.27422e-11
4.66118e-12
-8.84393e-13
-1.71441e-11
2.73739e-13
-3.68269e-13
-4.11628e-11
5.13808e-12
5.34089e-13
-3.33585e-13
-2.13491e-12
3.70322e-11
-3.22681e-13
6.33386e-13
3.61109e-14
-1.34237e-12
1.44019e-13
-2.82972e-11
1.67573e-13
6.21501e-13
9.88774e-14
-8.77822e-12
-1.95931e-11
1.63802e-11
-3.34871e-11
1.38114e-11
1.88807e-11
9.58378e-12
-1.37056e-11
-8.52523e-12
3.40919e-11
1.03867e-11
2.40568e-11
1.48969e-13
5.65578e-12
-5.74684e-12
-3.28519e-11
-1.44661e-13
1.18622e-11
-5.52378e-12
-1.07574e-11
0
1.99658e-11
1.48964e-13
1.48847e-13
-2.07782e-11
2.54317e-11
1.44573e-13
8.09633e-12
-4.79612e-12
1.76854e-11
4.615e-12
4.46931e-13
1.33715e-13
-1.9236e-14
-1.9542e-11
4.63131e-11
2.91445e-13
1.79226e-11
6.53914e-13
-2.72608e-11
2.95865e-11
1.56451e-11
-1.07343e-13
2.97761e-13
-2.77201e-11
-3.63651e-11
1.86745e-12
-6.30013e-11
2.88928e-11
9.62681e-11
-2.80928e-11
-3.16506e-13
9.87664e-14
-3.60136e-13
-2.31951e-12
7.04104e-14
-1.55111e-11
-1.41461e-13
-4.5882e-13
5.48507e-11
-2.78519e-11
9.23236e-14
-1.77818e-11
8.54293e-13
8.55053e-11
2.79342e-11
-2.21968e-11
3.91771e-14
-2.13452e-13
2.18891e-12
-1.92599e-13
-1.38221e-11
1.82331e-11
3.93815e-13
1.67261e-12
-8.18755e-13
2.25237e-11
-1.14005e-13
8.1649e-13
-3.7606e-11
-2.55845e-11
9.37665e-12
3.66976e-13
-2.0862e-11
8.98649e-13
-7.57841e-13
1.41408e-11
0
-8.92979e-13
1.4143e-11
6.82823e-12
3.16564e-11
-2.74644e-12
1.14772e-11
2.6961e-11
5.80566e-12
-1.49011e-13
-2.53337e-12
-5.95597e-12
6.33841e-12
1.45375e-13
1.44649e-13
-2.74847e-11
2.90812e-13
7.2241e-12
1.48915e-12
2.26519e-11
1.42865e-11
-2.78881e-13
-1.23755e-11
-3.36864e-13
-6.33555e-12
-9.49705e-12
2.41001e-12
-2.21007e-12
3.39864e-11
1.1878e-13
3.32728e-11
2.97767e-13
-1.81883e-12
-1.99312e-12
4.72498e-12
-6.40011e-11
1.78029e-11
-4.17601e-12
-7.00756e-11
-2.18748e-11
2.26449e-13
1.12664e-13
0
3.54737e-11
1.75303e-13
-1.57859e-11
7.28252e-13
5.89879e-13
-2.313e-13
1.31497e-11
-2.82535e-13
-7.85911e-13
5.77452e-12
2.48857e-13
-3.35664e-13
2.07337e-13
5.53689e-14
6.23065e-11
-1.14659e-12
5.04392e-12
3.28864e-13
-7.12282e-12
1.25902e-12
1.75638e-12
2.6596e-11
-6.83453e-14
4.52469e-11
-4.93269e-12
1.19934e-11
1.75096e-11
-3.34717e-11
-2.2979e-11
-8.39456e-12
-1.8942e-13
-1.862e-11
0
-1.48873e-11
-6.18986e-12
-6.83156e-12
2.25622e-11
1.04133e-11
1.88953e-12
-1.47378e-13
-2.54632e-11
-2.69809e-11
0
-1.14756e-11
5.75713e-12
7.2858e-13
-4.93223e-12
5.07761e-12
-1.45758e-13
5.75851e-12
0
1.65536e-11
1.49735e-11
-6.46536e-12
-1.78097e-13
1.58669e-13
-5.97574e-13
5.41928e-13
-8.86462e-13
-2.3294e-11
-4.28919e-13
1.66862e-11
1.57431e-13
4.09519e-11
-2.16379e-12
-2.98918e-12
-7.1117e-14
3.583e-11
1.11364e-12
1.68285e-11
2.11389e-12
-1.19342e-13
5.66479e-12
-4.07948e-11
-1.73889e-11
-4.07368e-13
1.83133e-11
-1.62355e-13
3.77913e-13
-2.11706e-13
3.94182e-11
-5.29954e-13
-4.15666e-11
-1.26283e-14
5.8013e-11
-4.07324e-11
-3.50352e-11
2.57642e-13
2.3892e-13
5.52848e-13
-1.08276e-13
2.71031e-12
2.19622e-11
-4.40555e-11
1.80688e-12
6.35898e-13
4.7347e-11
9.80634e-14
-3.17575e-12
-2.73503e-11
-1.06751e-11
-4.26574e-11
1.31215e-11
-1.38451e-12
-3.27532e-11
-2.52335e-13
-1.76755e-12
-5.96477e-13
8.19514e-12
-8.70823e-12
1.1656e-12
5.80194e-13
-7.54246e-12
2.91388e-13
6.34643e-12
9.98539e-12
-3.02822e-11
2.98535e-13
1.94048e-12
0
5.57802e-12
-6.00094e-12
-2.92744e-13
-4.40469e-13
-6.52147e-12
-6.41838e-12
2.53738e-12
1.43347e-13
3.87763e-11
-1.00812e-12
3.37038e-11
1.16515e-11
-1.12482e-12
3.22412e-13
-1.38678e-11
-4.52229e-12
2.05728e-11
-1.36797e-11
-3.93996e-11
-7.60104e-14
-4.41325e-11
-6.09808e-12
4.37756e-12
1.69561e-13
1.14766e-12
-2.08099e-11
1.78539e-11
-1.09421e-12
4.14338e-11
6.70712e-11
2.28585e-11
-3.78407e-14
1.33491e-11
-8.54637e-11
-6.26861e-13
-2.83994e-11
7.91644e-14
6.88162e-13
4.52764e-11
-9.29684e-11
2.83363e-11
2.34357e-13
5.47154e-13
2.77894e-13
1.15576e-10
4.0542e-13
-1.99588e-13
-1.50329e-11
8.6446e-14
1.29587e-12
3.88873e-11
2.5911e-14
1.18647e-11
3.92727e-11
-3.21509e-11
-3.03007e-11
0
-1.08275e-11
-1.16459e-12
1.11165e-12
-9.41797e-12
-6.68883e-14
2.6863e-11
-6.41676e-12
1.03725e-12
3.22911e-11
-6.87835e-12
-1.46347e-13
-7.19171e-12
4.44505e-13
6.71665e-12
0
0
-6.1219e-12
-2.664e-11
-1.4822e-13
7.10743e-12
0
1.97154e-11
5.95334e-13
5.6736e-12
-1.49211e-13
-1.76173e-13
5.68657e-13
-1.9791e-11
-2.58571e-13
-4.84486e-12
-1.08985e-12
3.96197e-11
1.29136e-11
4.75583e-12
1.43914e-11
-1.44681e-11
1.19492e-12
-1.39862e-13
2.13444e-11
-1.90119e-11
2.95138e-11
1.24169e-11
-1.7413e-11
-4.53552e-12
1.60712e-13
1.29561e-14
2.14317e-13
-1.4983e-12
3.08413e-11
-1.42972e-11
-1.07071e-11
2.85066e-11
-7.74801e-11
-3.16763e-11
1.5882e-11
-1.32116e-13
-3.14772e-11
1.04722e-11
1.54328e-11
-2.91011e-14
2.45175e-11
1.67386e-12
-6.6364e-11
2.08672e-11
-1.64552e-11
-1.89915e-11
-3.19222e-14
2.65937e-12
-3.63852e-11
-1.73914e-11
6.35827e-13
5.75312e-14
0
8.53279e-12
1.49782e-11
-1.41503e-11
2.01739e-13
-1.30658e-11
-1.10693e-13
7.85924e-13
1.9096e-11
0
-2.02356e-11
0
1.48054e-13
-4.44157e-12
0
2.97592e-13
1.04504e-12
1.7311e-11
1.39953e-11
3.05212e-11
4.41363e-11
6.52708e-12
4.74504e-12
9.19418e-12
5.93389e-12
-1.93183e-11
-5.35961e-12
-1.38446e-11
1.43451e-11
4.80508e-11
1.82137e-11
1.78127e-13
-9.43811e-12
-3.58777e-13
-1.32553e-11
-3.34125e-11
1.21411e-13
1.43195e-11
-9.66528e-14
7.31398e-14
-4.205e-11
-1.7826e-11
2.14001e-11
-4.85193e-11
1.06899e-11
1.92018e-11
2.97139e-13
1.38117e-11
1.83923e-13
-2.96371e-13
4.12917e-11
4.42753e-11
-1.00722e-11
-5.41875e-11
-4.91767e-11
7.71762e-11
-5.74103e-13
3.85465e-12
-9.77623e-14
2.87829e-11
-9.79177e-13
-3.41314e-11
5.53101e-12
3.55243e-11
2.86245e-11
5.48931e-11
2.84153e-11
2.81544e-13
6.47405e-14
-2.94225e-11
3.04078e-13
-3.32207e-11
-6.18104e-12
-2.43483e-13
-4.87355e-11
-7.14757e-11
-2.86663e-11
-1.79624e-11
1.53729e-12
5.17333e-13
-4.16148e-11
6.41973e-11
-6.07098e-13
-4.58009e-11
4.81365e-11
7.12054e-13
-3.65786e-11
1.36889e-12
-3.9881e-13
-3.84093e-11
5.70259e-11
-3.81897e-11
5.78354e-11
6.48067e-11
8.00139e-11
-9.6167e-13
3.75161e-11
-1.96848e-13
-1.63828e-12
8.42205e-12
-2.963e-11
-2.37805e-11
-2.82175e-12
-6.77452e-11
3.63078e-11
2.43735e-13
-3.00538e-13
-1.68896e-12
-1.48846e-13
2.38132e-12
-1.33709e-12
5.4881e-12
2.83192e-11
-8.89643e-13
2.90715e-11
4.7545e-12
-2.08395e-12
0
4.45413e-13
1.82503e-11
-1.76322e-11
0
1.15485e-11
3.68488e-11
-1.99823e-11
-3.14267e-11
-3.96185e-11
-3.42939e-11
-2.72622e-13
-3.30073e-14
2.0901e-11
-5.29299e-12
5.21324e-12
6.19822e-12
6.03573e-12
-2.51441e-11
-1.44824e-11
-1.71073e-11
-6.56493e-13
-1.78373e-11
1.75663e-11
4.06112e-13
-4.3065e-11
-1.35305e-11
2.42443e-11
-9.40165e-15
2.5093e-11
7.03807e-13
1.8717e-13
-1.6215e-13
3.28345e-11
-1.74292e-13
4.14416e-11
-4.72947e-13
4.18604e-11
-4.18303e-13
6.20061e-13
3.36678e-13
-1.80875e-11
2.63193e-13
-3.38303e-11
2.49553e-11
8.67968e-12
-3.5138e-12
-7.96362e-11
-1.29457e-12
1.67291e-11
1.64902e-11
7.35243e-14
1.90592e-11
1.124e-13
-2.29272e-11
6.62234e-12
4.8226e-12
3.75794e-11
8.82313e-13
-2.76315e-13
1.52897e-14
3.54264e-11
-6.41778e-12
-9.8204e-14
-1.09947e-11
-2.77956e-11
9.76508e-13
-8.70744e-13
2.98106e-13
-2.19032e-11
2.78543e-13
-1.5739e-13
-2.58861e-11
3.49208e-13
3.01905e-11
-3.05727e-11
-8.82555e-13
1.39793e-12
1.1962e-13
-3.57649e-13
2.6958e-13
-3.55229e-11
4.92436e-12
-4.18362e-14
5.76508e-12
3.06994e-11
-5.97597e-12
1.77005e-12
-7.60623e-12
-2.92462e-11
1.46603e-12
-1.81103e-11
0
-3.85345e-12
-1.42082e-11
2.17629e-11
1.7905e-11
2.95997e-13
1.8667e-11
2.22541e-12
1.18771e-12
-1.18562e-12
-4.44367e-13
0
2.66282e-12
0
1.47916e-13
-1.47938e-13
-1.48023e-13
-5.92489e-13
-5.92785e-13
3.8287e-12
-4.6892e-13
1.3001e-13
2.7604e-12
-3.20258e-14
1.87699e-11
8.13333e-14
-1.40851e-11
-6.90278e-13
-5.91183e-13
-1.49877e-11
1.50386e-11
-8.23399e-14
-2.65668e-12
-2.06344e-11
4.21075e-14
9.80391e-14
-4.24303e-14
3.6669e-13
-4.41352e-14
-5.32885e-12
-2.06336e-11
4.24935e-15
-5.76923e-15
6.09631e-13
-1.90009e-11
-1.55384e-13
1.36382e-11
-1.86929e-11
-1.29971e-13
1.54197e-11
-1.42263e-11
-1.81304e-11
2.92734e-12
2.07141e-11
3.59356e-13
-1.31524e-11
1.2368e-13
-3.55823e-13
1.20187e-13
7.71371e-14
2.0538e-11
-2.24348e-11
-8.53407e-14
-1.17123e-12
5.43187e-14
1.36666e-11
5.77485e-13
1.90473e-11
9.624e-14
1.47498e-11
-4.74423e-13
1.78739e-11
-6.63063e-15
-5.4665e-14
-1.97213e-13
-8.14735e-12
-3.63627e-13
-8.76419e-14
7.33331e-14
-7.50367e-14
-6.56894e-14
2.29698e-11
1.61895e-11
6.13175e-13
-6.07288e-13
9.07924e-12
2.53773e-13
2.65224e-13
5.04209e-13
-1.45229e-11
9.17623e-15
-4.10509e-13
-8.65493e-16
-7.61104e-14
1.05121e-13
2.20482e-11
-4.5025e-14
-2.12049e-13
-3.13801e-13
-1.48188e-13
-1.48109e-13
-7.40029e-13
-1.62719e-11
1.47915e-13
1.47906e-13
-2.20404e-11
-4.43998e-13
0
-2.96396e-13
0
1.48005e-13
-1.42029e-11
1.4199e-11
-2.95791e-13
-1.47896e-13
5.02894e-12
1.50911e-11
5.92028e-13
1.48051e-13
-1.45595e-11
-2.85461e-14
-1.35989e-11
5.44983e-15
-2.03783e-13
-2.16488e-13
1.10949e-13
1.28134e-12
-1.30176e-11
3.14069e-13
-1.41316e-11
-2.83555e-14
3.76758e-13
-3.23714e-11
-1.33238e-11
-3.47551e-12
-8.54768e-12
-1.86878e-11
8.87859e-14
-1.05533e-14
1.51532e-11
-1.44176e-11
-1.52092e-11
-2.34001e-13
1.87007e-11
2.5794e-11
-4.48071e-13
1.31747e-11
1.38355e-11
1.27934e-12
1.41037e-11
2.67583e-14
-9.12863e-15
1.82711e-11
1.38834e-11
3.74895e-12
3.29827e-12
1.94134e-11
6.27461e-14
-5.16008e-13
-6.66943e-13
-4.6896e-12
1.28955e-12
1.89166e-13
-1.90099e-11
-4.43237e-11
-1.8853e-11
1.13625e-12
-1.48552e-11
-1.00185e-12
-1.90803e-13
1.18941e-13
-4.50171e-14
-9.40372e-14
2.86887e-13
-5.05335e-13
-3.50547e-13
-1.16166e-12
1.74973e-13
1.53556e-11
2.01556e-13
3.14857e-13
-3.55349e-12
-9.52382e-15
2.0146e-11
1.99062e-11
1.95832e-11
-1.88277e-13
1.48114e-11
-8.23927e-14
5.22382e-14
1.20302e-13
-7.52565e-13
9.28943e-14
-6.47853e-13
-1.61445e-11
-3.82135e-13
-1.84582e-11
2.27827e-11
-1.49733e-11
-1.48043e-13
1.84996e-11
1.7013e-11
-2.95797e-13
-2.02607e-11
-1.65634e-11
-4.437e-13
-1.81968e-11
2.27923e-11
0
-3.37372e-11
-1.93809e-11
7.3958e-13
0
5.91557e-13
-1.70074e-11
0
5.91681e-13
1.46469e-11
2.95944e-13
-2.93721e-11
-1.59876e-11
1.99395e-13
-1.32155e-11
-1.33499e-11
-1.34432e-11
-2.0228e-13
1.91157e-11
1.83189e-13
3.89282e-13
1.81062e-11
1.95194e-11
-5.91597e-13
-7.29606e-13
-1.98797e-11
-4.39043e-12
2.24899e-14
2.49337e-13
-1.47103e-11
5.40958e-13
-3.61768e-12
1.61731e-11
-3.54495e-13
1.30007e-11
-4.58353e-12
1.37365e-11
-2.56277e-13
-3.44267e-11
1.35164e-11
3.30999e-12
1.23491e-12
1.79632e-11
-5.15926e-14
-1.81994e-14
1.98122e-11
2.16692e-11
-2.12533e-14
-1.37832e-13
1.40989e-13
1.30333e-11
1.84376e-11
1.91582e-13
1.55109e-11
2.66398e-13
1.79097e-11
-1.15659e-13
-4.25174e-13
1.57525e-11
4.32751e-12
-3.33701e-12
-3.41585e-13
-1.80507e-11
-2.40023e-14
-3.58482e-14
-1.93127e-11
-1.35434e-12
5.10172e-14
-8.02125e-13
-3.83244e-13
-1.36588e-11
2.39325e-13
-1.65627e-13
-1.52145e-11
1.18213e-13
6.34156e-13
7.94255e-14
2.28796e-13
2.2006e-13
-3.30346e-11
-2.48501e-15
-1.78021e-13
2.46167e-13
-2.05921e-13
-9.07357e-14
1.88624e-11
1.11905e-12
2.9318e-12
4.94726e-13
6.08954e-13
1.97012e-14
0
4.43819e-13
1.4791e-13
2.95779e-13
0
0
2.80996e-12
0
1.46466e-11
2.95943e-13
-9.83702e-12
-6.65729e-13
7.39659e-14
-3.69593e-13
1.44921e-11
-5.02791e-12
-5.17485e-13
-7.39032e-14
-2.2181e-13
7.37721e-14
-9.53921e-12
-1.40432e-12
7.39413e-14
-1.44182e-11
-8.87269e-13
-1.83375e-11
-1.51584e-11
-7.3885e-14
7.42186e-14
2.22501e-13
2.21045e-13
5.16808e-13
-2.95708e-13
3.34868e-16
-1.58243e-11
5.02844e-12
4.43892e-13