/*--------------------------------*- C++ -*----------------------------------*\
  =========                 |
  \\      /  F ield         | OpenFOAM: The Open Source CFD Toolbox
   \\    /   O peration     | Website:  https://openfoam.org
    \\  /    A nd           | Version:  10
     \\/     M anipulation  |
\*---------------------------------------------------------------------------*/
FoamFile
{
    format      ascii;
    class       volScalarField;
    location    "0.8";
    object      gradTz;
}
// * * * * * * * * * * * * * * * * * * * * * * * * * * * * * * * * * * * * * //

dimensions      [0 -1 0 1 0 0 0];

internalField   nonuniform List<scalar> 
47104
(
5.96396e-13
7.45367e-13
4.46795e-13
-3.71779e-12
1.48558e-13
0
-1.4871e-13
-1.48928e-13
-4.47202e-13
-1.49091e-13
-2.9813e-13
-1.48935e-13
-3.46199e-11
-1.74664e-11
1.03349e-12
-1.47641e-13
1.18415e-12
1.78297e-11
-2.26373e-11
1.99738e-11
-1.66788e-11
2.9715e-13
6.64722e-12
-8.77998e-12
-1.45444e-13
-1.20718e-11
6.73128e-12
1.47714e-13
-2.97142e-13
-1.04238e-12
-1.96281e-11
-8.88062e-13
0
-7.34214e-12
-1.51044e-11
1.59593e-11
-2.87925e-13
1.02429e-12
-2.01289e-11
-2.15603e-11
2.97099e-13
0
8.43551e-12
1.28244e-12
1.40674e-13
-5.62695e-12
-2.99233e-12
0
2.95259e-13
-2.27269e-11
-1.8718e-11
0
-2.03618e-12
1.42493e-13
6.18961e-12
1.40673e-13
7.83702e-12
-1.45438e-13
-4.50277e-11
-1.93109e-11
-1.87378e-11
8.73321e-12
-7.17025e-12
-2.05864e-11
1.98061e-11
5.6996e-13
0
8.63332e-12
-2.605e-11
1.99258e-11
0
-5.94332e-13
9.30591e-12
6.43821e-12
4.21756e-11
-2.90868e-13
1.46325e-13
-4.43135e-13
1.48576e-13
-7.44609e-13
0
1.96588e-11
1.27768e-11
-7.4e-13
-2.95246e-13
-5.90501e-13
-8.88035e-13
-2.24344e-11
-1.4893e-13
-4.09932e-11
0
-2.98113e-13
-7.44526e-13
-4.4605e-13
1.48533e-13
-9.35777e-12
-1.99247e-11
7.44574e-13
1.9229e-11
-1.49094e-13
5.58629e-13
8.76985e-13
2.50876e-11
1.82057e-11
-1.1265e-13
4.84061e-13
0
0
-5.97376e-13
-3.17536e-13
-1.91505e-14
-2.84301e-12
1.92853e-11
4.36901e-12
-2.79222e-12
-7.39118e-13
-3.52841e-11
-6.34117e-12
1.38779e-11
1.99907e-11
-6.8681e-12
3.85193e-13
-1.46007e-11
-9.19344e-12
0
2.95676e-13
-3.87665e-11
5.94152e-13
-7.64147e-12
-7.46501e-13
-1.90985e-11
7.1929e-12
-5.60476e-11
-2.63504e-12
1.395e-11
-1.39376e-11
5.82403e-13
3.50597e-11
2.1166e-11
-7.46005e-13
0
2.64069e-12
-1.18314e-12
0
-4.16846e-11
-1.72255e-12
-3.63326e-11
-2.93228e-13
-1.26999e-13
2.98318e-13
-5.96704e-13
2.27941e-13
5.91341e-13
2.90365e-13
-4.53603e-11
-8.60039e-13
-7.77604e-12
4.04409e-11
-1.23169e-11
0
2.98465e-13
-3.6694e-11
2.66334e-12
8.73597e-13
-3.11419e-11
-5.75999e-13
3.90326e-11
8.80686e-13
-7.41046e-12
-1.49214e-13
1.49339e-13
-6.88211e-12
-8.91228e-13
-5.89227e-13
-2.2578e-11
2.93044e-13
2.93557e-13
2.95743e-13
1.85896e-12
-7.46597e-13
2.98711e-13
-7.55627e-12
-3.57291e-12
-1.75278e-11
-6.28618e-12
1.2135e-11
-5.79498e-12
-1.25259e-11
-8.49143e-12
-2.16549e-11
-1.9143e-14
-2.22686e-11
2.58273e-11
1.4919e-13
-2.6184e-13
2.10488e-11
-6.14999e-13
7.46544e-13
1.91534e-11
3.82396e-14
2.01794e-11
1.33205e-13
2.69122e-12
4.34716e-12
4.09375e-14
-2.77083e-11
-5.47561e-13
4.27984e-12
4.2746e-13
1.94487e-14
-2.31084e-13
2.53628e-11
3.10747e-11
1.10653e-11
-3.62696e-11
1.49957e-12
-4.07145e-11
-2.56854e-11
3.0438e-11
-2.33143e-11
1.58739e-11
5.10877e-11
-3.96555e-11
2.42179e-12
1.00457e-11
2.43945e-12
4.73503e-11
-3.02554e-12
-4.20482e-11
9.07829e-14
1.69783e-13
2.99028e-13
6.32678e-11
4.77812e-06
3.14416e-06
3.20378e-06
2.88054e-06
3.93851e-07
1.32534e-11
6.63834e-13
-4.10689e-13
0
-2.73968e-12
3.14296e-06
-9.07345e-06
-9.30295e-06
-8.00491e-06
4.94153e-07
4.32665e-11
2.2371e-11
-2.17763e-12
-5.99818e-13
2.01252e-11
3.20358e-06
-9.30292e-06
-9.54962e-06
-8.17626e-06
4.99566e-07
6.02773e-11
1.89577e-11
1.92115e-11
-1.85614e-11
4.46185e-11
2.88096e-06
-8.00505e-06
-8.17638e-06
-7.17204e-06
4.84249e-07
3.14021e-11
-1.99112e-11
1.85022e-11
4.95809e-11
-1.36147e-11
3.93905e-07
4.94239e-07
4.99602e-07
4.84242e-07
-2.38826e-08
9.92106e-12
-3.13855e-13
1.25456e-13
-2.62616e-11
-1.08119e-11
4.18664e-11
1.99683e-11
5.45199e-12
1.60022e-11
1.41293e-11
4.12784e-11
1.92667e-11
1.68665e-13
-9.13433e-13
2.19346e-11
4.46298e-13
1.86361e-11
2.99151e-11
1.94762e-11
-7.7465e-14
2.315e-11
4.0866e-13
5.95397e-13
-3.43013e-13
-2.48982e-11
-1.87421e-11
1.95718e-13
-7.0791e-13
3.69936e-13
-2.00706e-11
3.54553e-13
0
-2.26951e-11
-4.75327e-11
1.27787e-13
-2.03018e-10
-2.14848e-10
-2.42297e-10
-2.86759e-10
-6.68243e-11
-3.97707e-11
-3.96247e-12
-1.87151e-11
-8.79994e-12
1.11014e-08
-1.66742e-05
-1.46209e-05
-1.45123e-05
-1.4732e-05
-1.60788e-05
-8.12845e-11
-2.83892e-11
2.34359e-13
-1.87979e-10
-1.6677e-05
-224.994
-293.184
-293.816
-292.294
-0.930393
5.67055e-08
-1.62156e-13
2.38627e-13
-2.29636e-10
-1.46201e-05
-293.183
-405.202
-406.689
-402.925
-1.90014
-2.3122e-08
1.01168e-12
4.55555e-13
-2.79026e-10
-1.4513e-05
-293.816
-406.689
-408.257
-404.334
-1.90841
-1.41504e-08
3.10719e-11
1.63356e-14
-2.22097e-10
-1.47377e-05
-292.294
-402.925
-404.334
-400.74
-1.8991
-4.55158e-08
2.27214e-13
6.95193e-14
-1.04213e-10
-1.6052e-05
-0.930434
-1.90017
-1.90841
-1.89911
-0.292689
9.21995e-08
3.89474e-13
-4.91412e-14
2.96842e-13
-1.69064e-10
5.63806e-08
-2.33461e-08
-1.47695e-08
-4.95595e-08
9.24106e-08
-4.07637e-11
-1.18664e-13
-2.97683e-13
2.23616e-11
-2.56713e-11
3.896e-13
-1.82635e-11
-3.18154e-13
2.971e-11
-2.49756e-13
2.43755e-11
0
-2.02185e-11
2.77937e-12
-1.89762e-12
4.04422e-13
7.67771e-13
2.80544e-11
5.50131e-13
-4.0909e-12
-7.42217e-13
-1.93698e-14
-1.79707e-11
-1.48218e-12
2.18477e-12
2.94084e-09
7.85003e-09
7.7737e-09
7.62465e-09
-1.20423e-10
3.99892e-11
2.35753e-11
1.02662e-13
-4.18218e-11
-8.73488e-10
0.011173
0.0219958
0.022141
0.0216815
-7.74154e-05
2.58179e-09
2.11385e-11
2.00991e-13
2.92162e-09
0.011154
1.27297e-05
2.91172e-12
4.68166e-13
7.80051e-09
0.0219922
2.04797e-05
4.88745e-13
2.18705e-11
7.78132e-09
0.0221358
2.07708e-05
2.13954e-12
3.0079e-13
7.23411e-09
0.0214427
1.92206e-05
2.07803e-11
1.84436e-12
-2.0937e-10
-7.73976e-05
-4.89559e-07
-4.0722e-12
1.30604e-11
2.96305e-13
2.53758e-09
1.27159e-05
2.04751e-05
2.07341e-05
1.82667e-05
-4.32536e-07
1.78792e-12
7.6424e-13
1.29189e-13
4.18101e-13
-2.17357e-11
2.21873e-11
-1.84377e-11
5.14647e-13
8.01567e-13
5.25246e-14
-1.35807e-12
0
1.22841e-12
-3.56568e-13
3.53456e-13
3.6337e-13
-4.48912e-14
3.03584e-13
4.28751e-14
2.02806e-11
-2.76157e-13
-1.29363e-13
2.25933e-11
2.97265e-13
8.40047e-13
5.46558e-10
1.78064e-09
1.77259e-09
1.6706e-09
4.65774e-12
-5.95499e-13
2.46346e-11
-3.55701e-12
1.11389e-12
-2.36318e-09
0.000439901
0.000696811
0.000678228
0.000687807
-1.72123e-06
1.7415e-10
2.85638e-11
8.1018e-14
5.00179e-10
0.000405575
7.35256e-07
-2.82967e-13
4.65483e-13
1.77297e-09
0.000691893
1.3477e-06
-2.15347e-11
-2.87185e-11
1.82978e-09
0.000679917
1.40639e-06
-3.06414e-11
5.39626e-13
1.72004e-09
0.00110135
1.19633e-06
1.15554e-13
-4.93989e-14
6.8247e-12
0.000342461
-3.60401e-08
2.66614e-11
3.32862e-14
2.97643e-13
3.00124e-10
7.56474e-07
1.34967e-06
1.42724e-06
2.55666e-06
-2.82481e-08
1.502e-12
2.64454e-13
-9.03989e-14
-2.51059e-11
-6.42827e-13
-1.99634e-11
3.98301e-11
2.16248e-11
-2.86384e-11
-4.37945e-12
-2.42508e-11
-1.09867e-13
-6.33856e-13
-4.16522e-11
-3.481e-13
-9.79573e-14
-2.92549e-13
2.25041e-11
-1.92315e-11
-2.77933e-13
6.79726e-13
7.43833e-13
1.82239e-11
-2.08453e-12
-3.11682e-14
1.22236e-10
4.62568e-10
5.26171e-10
4.89964e-10
-1.02357e-10
3.78872e-11
1.68652e-13
2.87337e-13
-2.04361e-13
-3.09204e-09
0.000189152
0.000239153
0.00019946
0.000256676
-3.64491e-07
4.06489e-11
-2.13827e-11
-4.10973e-13
-3.12925e-11
-5.72493e-05
1.092e-07
3.80651e-11
-5.69322e-13
3.50197e-10
0.000187949
1.99039e-07
1.36061e-13
4.04621e-13
4.65829e-10
0.000201579
2.11226e-07
-1.28267e-12
-2.4667e-11
5.52775e-10
0.000361083
1.73404e-07
-2.01813e-11
-1.98821e-11
-8.08398e-11
-2.122e-06
-5.79855e-09
3.49738e-12
-1.30724e-11
-5.96606e-13
8.95313e-12
1.10163e-07
1.99554e-07
2.22507e-07
3.67797e-07
-2.14973e-08
-1.50566e-12
-3.86534e-13
4.07502e-13
1.36385e-13
-1.98459e-11
-2.18667e-11
2.33098e-11
2.78834e-13
4.88201e-13
1.21168e-13
-2.12873e-11
-3.87757e-14
-5.95434e-13
4.72527e-12
-5.27131e-13
-2.25061e-15
-6.29488e-12
-7.19718e-13
6.65413e-14
-7.71719e-13
2.26828e-13
0
9.74719e-14
3.87395e-12
-4.30619e-13
5.85262e-13
1.13891e-10
9.99141e-11
1.45883e-10
4.50423e-11
-7.55555e-11
-2.09906e-11
2.92978e-11
-3.7739e-11
-2.69737e-09
0.000145567
0.000188818
0.000145415
0.000207807
9.03129e-09
4.98467e-11
4.76776e-13
-9.79124e-14
-3.92157e-10
0.00261798
-8.85064e-09
3.84138e-13
-2.93565e-14
-5.2701e-12
-2.55487e-05
-2.47836e-08
2.07404e-11
4.84238e-11
1.24225e-10
0.00014457
-2.65129e-08
2.07976e-11
-4.35235e-13
8.27327e-11
0.000213109
-2.31672e-08
-6.94644e-13
-2.26651e-13
5.53491e-11
-5.85347e-08
1.31684e-09
-2.62729e-11
1.45211e-13
-6.27124e-12
3.15877e-11
-1.22648e-08
-2.6272e-08
-5.81296e-08
-1.03941e-06
5.69037e-08
-9.03945e-13
-3.73173e-13
-1.48836e-13
2.46912e-11
6.62779e-13
2.09414e-11
-2.79277e-11
-2.14372e-11
-3.43687e-13
4.08564e-12
-5.49636e-13
-5.9548e-13
1.48904e-13
3.87631e-11
1.7844e-13
-2.37116e-11
-1.52166e-13
-2.27814e-11
1.89601e-11
-3.85302e-14
2.65467e-11
-5.9559e-13
-2.67959e-11
-5.30576e-11
6.33075e-13
-1.8349e-10
-7.72642e-10
-8.37088e-10
-7.6567e-10
1.27737e-11
3.79325e-11
-4.81941e-13
-2.47127e-11
3.89615e-11
3.38639e-10
8.88988e-05
-5.52964e-05
-0.00011291
-2.087e-05
5.80358e-07
-9.81561e-11
1.93384e-11
-2.04968e-11
1.40902e-10
-0.000947687
-6.5849e-07
5.21606e-12
1.41065e-13
-6.73924e-10
0.000131373
-1.34119e-06
-8.90253e-14
-2.03306e-11
-7.70812e-10
-0.00010834
-1.39353e-06
-1.19098e-12
2.52221e-11
-7.06894e-10
-1.97789e-05
-1.1613e-06
2.48457e-13
1.97381e-11
3.57469e-11
5.09082e-07
2.25963e-08
3.7575e-12
-2.14416e-13
5.10736e-11
-1.1218e-10
-6.59827e-07
-1.34057e-06
-1.3709e-06
2.21778e-07
-1.11242e-08
0
7.16343e-15
-2.97783e-13
5.78828e-15
2.26069e-11
2.62251e-11
-2.33792e-11
-1.303e-13
-3.10467e-11
-2.70658e-11
-9.75179e-14
-1.48925e-13
-4.46784e-13
-4.29291e-12
2.88853e-13
1.9466e-11
5.8929e-12
1.8529e-11
1.45044e-13
-4.99237e-13
2.95031e-13
-2.97877e-13
4.35065e-13
5.24623e-11
-1.89519e-12
-3.10364e-10
-8.02437e-10
-6.23884e-10
-1.00978e-09
2.82287e-11
2.98661e-13
-3.57083e-12
1.29608e-13
-2.60201e-13
-4.23739e-09
-0.00708328
-0.0166865
-0.0168763
-0.0163714
3.47047e-05
-4.18464e-10
-9.32349e-14
2.35689e-13
-3.72235e-10
-0.0066375
-9.30539e-06
-5.52638e-13
6.9043e-14
-8.12296e-10
-0.0166269
-1.55896e-05
2.32494e-11
-1.97844e-11
-6.93444e-10
-0.0168865
-1.58454e-05
-1.98663e-11
-1.92163e-11
-1.07626e-09
-0.0163755
-1.4476e-05
-2.30223e-11
-1.5196e-13
-4.56244e-12
3.44798e-05
2.11222e-07
-1.96308e-13
-4.89165e-13
-4.42001e-11
-4.12988e-10
-9.31094e-06
-1.55891e-05
-1.58287e-05
-1.42827e-05
1.95511e-07
-3.01167e-13
1.87283e-13
-2.9786e-13
4.96602e-13
-1.584e-12
2.32089e-11
-1.1754e-11
2.07788e-14
6.60941e-13
6.30112e-13
-3.21996e-14
8.9377e-13
2.81476e-11
1.81716e-11
6.41104e-13
2.35491e-11
1.30175e-12
1.848e-13
-6.35463e-14
-5.54396e-13
-2.6315e-11
1.48955e-13
4.90705e-11
-5.96154e-13
5.76372e-13
-5.46089e-11
-1.0003e-11
-1.2043e-11
-1.73287e-11
4.1963e-13
1.79128e-12
8.51917e-13
2.46445e-11
-4.84179e-11
-1.54025e-09
6.68417e-05
6.0491e-05
6.01079e-05
6.09359e-05
6.22283e-05
6.74917e-10
-3.99928e-11
2.10005e-11
-6.75158e-12
6.67566e-05
-5.72195e-08
-2.48439e-11
-2.20989e-13
-1.94184e-11
6.05583e-05
-6.91691e-08
1.37845e-14
2.02638e-11
-5.95005e-11
5.99946e-05
-6.90482e-08
4.45017e-13
-3.82481e-13
-5.87436e-12
6.10112e-05
-6.90702e-08
-1.88878e-11
-4.04379e-11
4.60558e-15
6.23357e-05
8.87261e-09
-3.4398e-11
1.57466e-13
-5.19445e-11
6.54462e-10
-5.72237e-08
-6.91292e-08
-6.89904e-08
-6.89322e-08
9.04176e-09
6.02208e-13
-3.01349e-13
-7.44725e-13
-2.32319e-11
-3.32396e-11
-4.43882e-11
-6.71079e-15
-9.25296e-14
3.0098e-11
1.37539e-14
-1.9158e-11
-1.48971e-13
0
-2.32807e-11
1.94022e-11
-1.9301e-11
-2.2176e-11
-1.76669e-11
-1.30547e-11
1.68007e-12
-7.50333e-13
-1.4895e-13
1.14679e-13
-2.98101e-13
8.36053e-11
-2.92924e-13
-5.85873e-13
-7.03665e-12
-5.8512e-13
4.23387e-13
-5.22611e-11
-1.76961e-11
8.41272e-14
4.83193e-11
-1.22628e-12
9.03722e-11
1.17604e-12
-2.35599e-12
5.87198e-13
-6.44922e-11
-3.97292e-13
-3.41382e-11
7.92079e-14
-4.62719e-11
-9.35359e-11
1.76018e-12
-2.70376e-13
3.05344e-11
0
1.11688e-10
-4.44546e-11
-2.32454e-11
-2.26139e-13
0
5.24402e-11
1.12824e-10
-8.48407e-13
4.71596e-11
3.71571e-11
1.80186e-10
1.31539e-11
-3.31996e-12
-1.54612e-12
1.10545e-11
1.20891e-10
-1.47941e-12
3.41425e-13
-9.21807e-12
5.19828e-11
-1.37162e-11
2.00237e-12
3.79012e-11
-3.72545e-11
7.13331e-14
1.86e-12
0
-2.28656e-11
1.48938e-13
2.18144e-14
1.49287e-12
-2.3114e-11
1.90369e-11
5.90862e-14
-5.34719e-13
2.32152e-11
-8.66716e-13
-1.10136e-13
-2.79937e-11
-1.88557e-11
-4.6763e-13
2.5522e-13
-1.55672e-12
-3.52744e-13
1.86683e-11
-1.94041e-11
1.80085e-13
-1.93487e-14
-2.322e-11
2.98121e-13
-8.16029e-11
2.92849e-12
-5.85626e-13
-2.90139e-11
2.92439e-13
-2.33638e-13
9.16953e-11
-1.04411e-12
4.64956e-13
-5.18843e-13
-1.83876e-12
4.68473e-12
8.30431e-11
5.90812e-13
8.0663e-11
1.99021e-12
-6.88349e-11
2.0458e-11
-1.80497e-11
4.68329e-11
2.59834e-13
4.34863e-13
-2.9393e-11
9.3628e-13
-2.92816e-13
2.07646e-10
-5.08044e-12
-2.15244e-11
-7.04418e-14
-2.93059e-13
2.8356e-11
-5.26785e-11
-1.13944e-12
5.90572e-13
-3.65535e-11
-5.71061e-11
1.05398e-12
1.86677e-11
-5.09465e-12
-1.05738e-11
-2.45457e-13
5.17765e-11
3.05999e-11
8.45987e-14
4.30084e-11
8.83277e-13
3.41923e-13
-3.77266e-11
3.8013e-11
2.47643e-13
-2.26308e-12
1.92911e-13
-2.71395e-11
8.93536e-13
2.33798e-11
6.02371e-11
4.58604e-11
-2.79531e-11
8.46329e-15
-3.02225e-13
2.70575e-11
1.92962e-11
-1.23032e-12
-7.44475e-13
2.37617e-11
-1.95009e-11
4.15253e-14
2.3289e-11
2.87039e-13
1.28346e-11
-2.29796e-13
-1.50549e-11
-7.89333e-12
2.67449e-13
0
-1.1401e-12
4.24525e-11
5.18367e-11
3.66399e-11
2.92478e-13
-5.02874e-13
-4.06222e-11
2.11649e-11
1.43895e-13
-5.24168e-11
-6.12541e-13
5.42006e-12
-1.45404e-12
-7.32816e-11
-5.88924e-13
-7.79328e-11
6.88012e-11
1.49705e-11
2.5176e-11
5.85467e-13
1.13856e-12
3.93971e-13
-1.20833e-13
-1.14331e-11
0
6.45656e-13
-1.06913e-11
-1.08371e-13
-4.86324e-14
-1.17243e-12
0
4.24369e-11
3.60571e-13
-2.82691e-11
-2.13497e-11
7.30216e-11
2.69073e-12
2.70681e-11
1.28864e-12
-1.37874e-12
8.79461e-11
-8.20051e-12
-7.32954e-13
9.82902e-12
-4.18114e-11
-7.31861e-13
-1.28723e-12
-4.42585e-11
-6.04748e-11
-7.4272e-12
4.85094e-14
-1.20558e-12
2.26097e-11
1.4891e-13
-2.88815e-13
-4.77887e-13
-1.19906e-12
-3.67151e-13
-5.99047e-14
6.5601e-13
-2.36414e-11
6.57213e-13
-2.65098e-11
-2.97787e-13
6.78684e-13
-2.30338e-14
-2.04199e-13
9.8125e-14
-1.94966e-13
-1.84388e-11
2.00762e-11
-1.38959e-13
-1.29578e-13
-3.54356e-13
-5.96202e-13
-3.45024e-13
-4.6278e-11
-5.44646e-11
-2.93082e-13
1.90092e-11
-7.98945e-12
5.97323e-13
7.32457e-13
-5.4033e-13
5.30357e-11
1.22797e-12
-1.04048e-13
-5.89841e-13
5.90948e-13
7.06675e-12
-9.36722e-11
2.7444e-13
-5.8851e-13
-2.71089e-12
-4.50805e-11
3.53242e-11
4.29305e-11
6.23161e-12
-5.44215e-13
1.75693e-12
-9.404e-11
6.01255e-11
2.18262e-11
-2.65724e-14
-5.04067e-11
1.18188e-12
-4.20719e-11
-3.86991e-12
-1.41064e-13
1.95919e-11
0
-4.95953e-11
1.06727e-13
2.29141e-12
5.14613e-13
-4.04131e-12
-1.32171e-11
1.85952e-13
-5.40811e-14
-2.68862e-12
-3.57471e-13
1.05824e-12
-9.20772e-12
6.11043e-11
2.07661e-11
4.32495e-14
-4.88265e-11
2.70866e-11
-4.4673e-13
-3.6702e-14
-2.96628e-11
-2.71276e-11
7.99015e-12
-2.14038e-11
1.27749e-12
-5.20942e-13
2.18426e-13
-2.65103e-11
7.4452e-13
-7.30244e-14
-1.67561e-13
-1.4242e-13
-1.36345e-13
-2.49763e-13
-2.36247e-13
-3.54383e-13
3.90714e-11
8.04306e-12
-2.30114e-11
1.19218e-12
-3.09235e-13
2.63561e-12
-2.92808e-13
0
-1.93008e-11
8.3558e-12
2.98561e-13
4.64201e-13
-3.91139e-12
-1.02053e-12
0
8.77466e-11
1.02537e-10
-5.90359e-13
5.88382e-13
-1.22315e-12
2.82987e-12
1.92373e-11
-2.52452e-11
1.01601e-10
1.38486e-12
-4.27552e-11
-9.63094e-14
-1.9887e-11
1.17118e-12
5.89295e-13
3.36903e-13
-5.62833e-13
-5.14529e-13
9.02571e-11
8.20584e-11
-8.0447e-14
7.31414e-13
-2.95139e-13
-5.64337e-11
5.29442e-12
4.57984e-11
-1.00289e-13
4.94494e-14
4.74192e-11
-1.16087e-10
2.35827e-11
1.11249e-13
6.50727e-13
1.19453e-12
1.52886e-11
8.51614e-13
5.49075e-11
-2.15402e-12
3.2726e-11
-3.61803e-11
1.01819e-10
1.95153e-13
2.7844e-13
2.45247e-11
1.30874e-13
-1.79896e-11
2.86495e-13
2.99507e-13
-3.20445e-13
1.28724e-11
-1.942e-14
2.65133e-11
4.46798e-13
-2.17882e-13
-4.54987e-13
2.01375e-13
-1.2205e-13
1.39704e-13
1.21013e-13
-6.58452e-12
3.06552e-14
-5.9783e-12
2.11998e-11
4.02321e-11
-1.48956e-12
-1.46644e-12
5.87719e-13
0
-2.93392e-13
-1.47122e-12
8.95401e-13
-3.33873e-13
3.23675e-14
1.21437e-13
-6.10411e-13
4.81565e-11
-9.98513e-11
-5.91663e-13
-8.85227e-11
-1.06775e-10
-4.02879e-12
5.8806e-13
5.08654e-11
-5.71853e-11
-1.04444e-10
5.51747e-11
2.3712e-11
-5.08928e-13
-1.46921e-12
-2.36333e-12
-3.82345e-11
-3.60214e-14
-6.88371e-13
-3.82335e-11
1.18331e-12
4.41749e-11
3.60416e-11
-5.72305e-13
5.60348e-11
-5.90101e-13
9.47463e-13
-6.37563e-13
2.2474e-11
-4.7396e-11
7.38876e-11
3.65133e-11
-3.02316e-13
1.35904e-13
-5.96863e-13
-1.31677e-11
5.36057e-11
6.42768e-11
-6.69073e-14
-4.57744e-11
3.60216e-11
-5.02501e-11
2.82391e-13
-5.76403e-13
-2.2846e-11
-1.84574e-11
-4.64573e-13
1.92775e-11
2.1307e-11
-6.83742e-13
7.557e-13
6.0576e-13
2.75619e-11
1.48953e-13
6.05093e-13
7.85571e-13
1.0069e-13
1.16912e-13
4.03003e-13
-1.81877e-11
1.87426e-11
-2.40783e-11
3.17312e-13
5.69458e-11
-4.14457e-11
8.0407e-13
-5.8696e-13
2.93901e-13
-4.20647e-11
2.93462e-13
3.94364e-13
-1.19487e-12
-3.935e-13
3.79637e-12
-3.81856e-13
-6.13792e-13
-5.76292e-13
7.68633e-11
-1.52648e-12
-7.58735e-11
-1.58505e-11
1.55348e-11
9.14192e-13
1.40979e-13
8.80321e-13
1.57421e-12
-1.09418e-10
1.6322e-13
-5.85036e-14
-5.87768e-13
7.23132e-11
7.84424e-11
3.40908e-13
-2.21195e-11
-3.52978e-12
6.96816e-13
-4.38905e-11
6.60929e-12
-1.97899e-13
5.86907e-13
-3.19206e-12
1.14723e-13
-3.08237e-13
-2.16711e-11
6.2898e-12
-1.90372e-10
2.75366e-13
-3.1554e-11
-7.28241e-13
-2.7184e-11
-1.50835e-11
-9.56147e-11
-1.39894e-11
5.26733e-11
9.22385e-13
2.79986e-13
5.09391e-11
-2.69046e-11
1.48979e-13
-2.42685e-11
-9.739e-14
-8.90431e-12
-5.37143e-13
1.43767e-14
1.04753e-13
-1.30856e-11
-1.92417e-13
3.36853e-13
-5.95802e-13
2.62221e-13
2.02249e-11
-1.9248e-11
-3.52818e-13
-1.87019e-11
-1.22912e-13
6.873e-12
5.62056e-14
5.79058e-12
-2.09965e-11
-2.98181e-13
-6.32702e-13
-5.15512e-11
0
4.10319e-11
0
-6.00942e-11
4.86836e-11
1.1053e-12
2.02423e-13
1.09162e-13
6.13609e-13
3.89859e-12
0
-3.53873e-12
-9.75784e-11
1.23838e-12
4.84754e-11
2.01408e-11
-3.00504e-11
3.89513e-11
-9.20364e-13
5.10774e-12
-2.44166e-13
9.10095e-13
0
-1.17751e-12
-4.02516e-11
2.15514e-13
5.56767e-13
2.93073e-12
1.17957e-12
5.25869e-13
-3.11867e-11
-2.26493e-11
-8.77371e-13
-7.28891e-11
6.28765e-13
-2.9351e-11
6.7766e-13
-5.5305e-12
-9.88159e-14
-4.089e-11
-1.85283e-11
1.09184e-13
-1.2843e-11
7.98707e-13
4.10354e-11
-5.05322e-11
-1.06134e-10
-9.243e-12
-8.45424e-13
-1.1332e-10
-2.50413e-13
2.97938e-13
2.2072e-11
1.84335e-11
2.83272e-13
2.73093e-11
-6.7146e-13
6.85862e-12
2.71122e-11
-2.59612e-13
-3.88352e-14
-1.93653e-11
1.74971e-13
-7.62144e-13
-3.913e-13
-5.26176e-14
2.19296e-11
1.83732e-11
-1.89136e-11
-1.85853e-13
-1.29651e-13
-5.71453e-11
1.49084e-12
-3.50346e-13
5.09624e-11
0
-4.07388e-11
-3.77264e-11
1.10629e-10
-1.04537e-11
3.01144e-11
-3.44296e-13
1.51878e-12
-2.45416e-12
-1.5112e-13
-4.2586e-13
-3.5453e-12
5.88759e-13
-1.04153e-10
-4.7023e-11
-6.17186e-13
2.1306e-11
-9.13709e-11
7.26759e-13
4.81954e-11
3.54408e-13
7.23822e-13
5.47577e-11
-3.58676e-12
9.65321e-13
8.38535e-14
2.2413e-11
-8.79206e-13
-7.09054e-11
-5.04218e-13
1.12888e-11
-5.37975e-14
5.40988e-11
0
9.41628e-14
1.57089e-13
2.20157e-11
-1.56317e-13
-1.0047e-10
8.95711e-11
5.68037e-11
-5.07014e-14
4.00269e-11
-3.75946e-12
6.78709e-13
5.37151e-11
5.27683e-11
-4.69001e-11
1.73831e-12
6.26988e-11
6.26719e-11
0
-1.13403e-13
-6.19995e-12
2.77455e-11
1.83084e-11
3.606e-14
-2.45438e-13
2.71284e-13
-2.07789e-11
0
1.49022e-13
6.90598e-12
-2.02095e-11
1.86338e-11
2.35297e-13
1.81246e-11
1.2865e-13
2.48357e-15
1.65839e-13
-2.22048e-11
2.47839e-13
-2.9821e-13
-9.17717e-13
2.92764e-13
-2.92877e-13
4.1329e-11
3.80208e-11
-5.1496e-11
-3.76344e-11
-8.40405e-13
1.96631e-11
-1.15472e-12
0
1.65992e-12
1.81792e-10
5.90946e-13
-5.88847e-13
-2.15512e-12
1.66164e-12
-2.04344e-11
2.00467e-13
5.29844e-11
-1.72087e-12
-4.73731e-13
-8.47417e-14
2.71147e-11
-5.21272e-11
-7.97366e-13
-1.42822e-12
2.45756e-11
-1.24315e-13
2.93096e-13
2.36375e-12
4.73601e-11
-1.08356e-12
-4.68561e-12
-5.41023e-11
1.03625e-10
1.28364e-12
7.44828e-12
-7.1939e-14
4.77961e-11
1.03052e-10
-4.87433e-11
2.13189e-11
9.85245e-13
0
4.50116e-11
-7.26162e-13
-5.34586e-11
-2.00847e-12
5.48375e-11
-1.81496e-12
6.02849e-13
4.09998e-11
1.49017e-13
4.51308e-13
-1.86984e-11
-7.75165e-13
-2.66742e-11
8.21378e-13
-6.56425e-12
-2.63987e-11
2.3653e-13
6.35138e-13
1.90893e-11
-6.45454e-13
-1.23977e-13
2.84032e-13
-1.94648e-13
-2.19323e-11
1.87796e-13
4.26698e-14
-1.46395e-13
-2.71613e-11
2.30376e-11
-3.72895e-11
4.62244e-11
-2.92751e-13
-4.04137e-11
-1.17229e-12
5.84882e-13
-6.31907e-13
-2.98835e-13
-5.40078e-11
2.59502e-14
2.48804e-13
-6.13689e-13
8.9837e-11
1.50026e-13
0
1.76573e-12
-1.29496e-12
-1.43041e-12
-3.66096e-14
-3.92519e-11
0
-1.71027e-10
-3.13469e-13
-6.49107e-13
-1.73745e-12
3.60163e-11
1.02005e-10
-7.85759e-12
-1.72543e-13
1.15325e-13
0
9.39198e-11
-4.77505e-11
-1.78086e-11
8.95341e-14
0
1.76569e-12
-6.07056e-13
8.47434e-13
4.63494e-13
-4.76047e-11
-1.45552e-13
4.99511e-13
-2.53034e-11
-2.06181e-11
2.98826e-13
-2.10983e-11
-9.36111e-14
3.84315e-11
-5.17149e-11
-4.96707e-11
-5.22088e-13
-3.31464e-12
-3.63296e-11
1.57872e-11
3.551e-13
6.04456e-12
2.15833e-11
-1.76353e-11
1.04819e-14
-3.12588e-13
2.2672e-13
4.28977e-11
1.10182e-13
0
-7.25824e-12
1.98505e-11
9.39146e-13
1.37105e-13
3.4306e-15
-2.60363e-11
-4.39069e-13
1.77959e-13
2.19603e-11
3.97539e-14
5.01592e-11
-4.60776e-11
4.63505e-11
4.08137e-11
-5.87659e-13
-5.86412e-13
9.32434e-13
-2.98995e-13
-2.09353e-13
-1.96184e-11
8.79391e-14
3.06436e-12
1.19955e-10
-5.87545e-13
1.00621e-10
1.02066e-10
7.44262e-11
-2.39118e-11
1.91515e-11
-1.9167e-11
-8.80193e-13
-6.40322e-11
-6.05763e-11
3.87008e-13
-2.77365e-11
-8.16196e-11
8.16611e-11
7.40514e-12
-2.44939e-11
-3.36991e-11
5.87665e-13
-1.17684e-12
-5.77467e-11
2.17704e-11
2.82911e-11
8.20998e-12
2.63965e-11
-3.13874e-13
2.25606e-11
-9.55089e-13
-3.59904e-13
1.35641e-13
2.62097e-13
-3.31791e-12
-2.61006e-11
2.98972e-13
3.34436e-11
6.11304e-11
-3.90022e-11
5.38771e-11
5.0331e-11
5.7907e-11
4.45826e-11
-6.355e-11
1.68698e-13
3.64181e-13
-1.5906e-12
-4.87347e-13
2.68686e-14
-1.3843e-13
2.50486e-13
-7.2073e-13
8.24842e-13
-7.46461e-13
-1.88026e-11
-3.50999e-11
-2.70363e-11
-8.24972e-14
-2.14691e-13
1.27542e-13
5.01454e-13
2.31043e-11
2.55889e-13
2.7604e-11
-1.5309e-14
-1.374e-11
-5.01998e-11
-4.51315e-11
3.81071e-11
8.93643e-13
1.18927e-12
-5.94261e-13
1.49546e-12
5.18768e-12
-9.22876e-15
-3.333e-13
1.22409e-12
-9.13116e-11
-1.308e-11
8.20524e-11
8.36833e-11
-2.13527e-10
2.1564e-11
1.91421e-11
1.82637e-11
8.90909e-13
-2.52331e-11
6.08328e-11
-5.77474e-13
1.67848e-12
4.1087e-11
8.52773e-11
6.01217e-13
2.43191e-11
4.76977e-13
0
1.06524e-10
1.11317e-11
2.56234e-13
5.13505e-13
-7.43422e-12
5.51699e-13
-5.72654e-11
-1.59224e-14
1.91639e-12
-8.91501e-13
-1.18695e-10
3.49088e-13
1.84765e-12
2.01964e-11
5.98091e-13
-7.75739e-11
-6.17231e-11
-5.42481e-11
5.35566e-11
1.28925e-11
-1.93272e-11
-4.22047e-11
-3.16294e-13
-1.64106e-11
-1.45435e-13
-7.9917e-15
-2.21471e-11
1.89037e-11
-4.2954e-13
1.94301e-11
-5.60818e-13
-2.23617e-11
0
2.97773e-13
8.57828e-14
-2.37888e-11
2.96613e-14
-4.44862e-12
-2.49372e-11
2.59615e-11
2.58537e-11
1.88499e-11
2.21619e-11
7.88359e-13
-4.16695e-11
1.16142e-10
-1.0158e-12
-3.79679e-11
3.56111e-11
-8.89401e-13
-6.81739e-12
-4.46143e-11
-2.35614e-11
4.35373e-14
5.94406e-13
1.63167e-11
-1.17873e-12
-3.54552e-12
0
1.08684e-13
-1.12895e-10
2.93656e-12
-1.91314e-11
1.94738e-11
-4.40505e-13
-2.31718e-13
7.90569e-13
4.54486e-13
-1.40675e-11
-2.25049e-11
5.71361e-13
-4.18213e-13
-2.26734e-11
3.00275e-13
1.91734e-12
-5.91114e-13
-1.29372e-11
4.443e-11
-1.40579e-11
2.0833e-12
0
-7.41366e-12
3.19375e-13
9.62414e-12
-1.45441e-11
-1.52615e-11
-1.02159e-12
-5.316e-13
1.28152e-11
-2.78085e-12
5.81331e-13
4.76772e-11
-2.18335e-11
6.65145e-13
-5.93058e-13
-7.09067e-11
5.25256e-11
-5.10608e-11
3.03803e-11
-2.65659e-11
5.76854e-13
5.62789e-11
-2.35474e-13
2.35868e-11
5.92908e-13
1.70541e-11
3.42397e-12
-1.23285e-10
-1.16408e-12
2.32662e-12
9.02841e-11
-2.0356e-13
1.01065e-12
2.5605e-11
1.48713e-12
6.89332e-11
3.81988e-13
5.33377e-11
-5.3095e-11
-1.36274e-11
-4.08089e-11
0
2.36604e-11
-2.443e-11
2.9158e-14
1.65429e-11
-1.26418e-13
2.18317e-11
6.3277e-14
2.38492e-13
-1.38211e-12
-2.612e-11
2.0843e-12
2.03405e-11
3.54619e-11
2.69669e-11
-3.70046e-12
-1.03019e-13
0
-5.92067e-13
-2.32013e-11
1.05764e-12
1.05807e-12
0
7.81126e-12
-3.03106e-11
9.74604e-14
-5.90751e-13
1.8024e-12
-5.54109e-12
6.79785e-12
-9.92793e-12
1.88411e-11
6.37132e-12
3.08344e-13
-8.84047e-13
-4.35796e-11
0
-8.56621e-13
-2.93793e-13
0
1.52091e-13
-1.92591e-11
-2.02782e-11
1.14391e-11
2.93731e-13
2.93544e-13
-4.87022e-11
5.03195e-11
3.88654e-11
-1.46492e-12
5.28998e-13
4.43986e-13
-1.4798e-13
-2.71587e-11
2.92024e-13
1.26072e-11
-6.16344e-12
1.13451e-13
-4.16629e-12
1.91183e-13
-1.67695e-11
-2.41181e-11
-2.95962e-13
2.84793e-12
4.35664e-11
8.65864e-12
6.50498e-12
-1.32238e-11
-1.92322e-12
1.37216e-12
1.69396e-11
1.47966e-13
-4.44056e-13
4.1638e-12
5.82194e-11
-1.55365e-11
4.93896e-11
0
-1.2418e-12
-8.1157e-13
3.82929e-13
-4.44021e-13
1.776e-11
2.95586e-13
3.89976e-11
-5.86546e-13
2.52055e-13
-5.78027e-13
8.73226e-11
-5.47987e-11
-2.94933e-13
-1.55437e-12
-2.96747e-13
-1.15969e-11
-8.8635e-13
2.74575e-11
2.94883e-13
-2.38841e-11
4.28874e-11
-8.16476e-12
-9.23821e-12
4.45155e-13
3.15774e-13
-1.29392e-13
-3.48886e-13
0
-1.86085e-11
5.919e-13
-1.86478e-11
1.48151e-13
-4.45082e-13
2.96927e-13
-1.48202e-13
2.96244e-13
2.16096e-11
1.47935e-13
4.88148e-12
2.485e-11
0
-4.54431e-11
-1.99965e-11
-2.2674e-11
-1.18496e-12
-2.39726e-11
2.64591e-11
1.89101e-11
-1.58063e-11
-2.33465e-11
3.32402e-11
8.34875e-12
3.31466e-11
2.34017e-11
-1.90928e-11
0
-8.44635e-12
-9.33071e-12
1.47659e-13
1.00781e-11
-4.42581e-13
-1.15445e-11
-1.83274e-11
0
-1.89341e-11
-1.47732e-13
-2.02816e-12
-1.72062e-11
-1.90965e-11
-1.69499e-11
-4.65372e-12
-3.06873e-11
-1.47739e-13
2.26316e-11
5.91588e-13
-1.92061e-11
-1.40537e-11
0
2.53645e-11
3.38168e-11
7.69789e-12
7.53136e-12
-4.43309e-13
1.1832e-12
2.4403e-11
0
-1.51952e-11
-2.48415e-11
-1.92843e-11
7.41631e-13
-5.73629e-12
-4.57777e-12
-2.23133e-11
2.95807e-13
2.9585e-13
-5.05158e-11
-2.21131e-11
3.04063e-11
9.62567e-12
-2.56504e-11
-1.34443e-11
1.47525e-11
-2.00911e-11
0
-2.30901e-11
6.50126e-12
6.52696e-12
-8.22112e-12
-5.98062e-12
-2.21514e-12
-9.14742e-12
8.96272e-12
-4.02656e-12
1.99826e-11
2.96229e-13
-2.50079e-11
-1.64007e-11
-1.87593e-11
2.63314e-11
2.45282e-11
1.47743e-13
2.60135e-11
2.82636e-11
-4.44366e-13
2.43028e-11
0
2.66411e-12
-1.47926e-13
-2.20394e-11
-2.12985e-11
-8.87535e-13
-2.30513e-11
5.57287e-11
-2.07477e-12
1.80623e-11
-5.9202e-13
1.47947e-13
4.28929e-12
-7.39478e-13
-1.47896e-13
1.4791e-13
-5.91807e-13
-5.92028e-13
-1.33246e-12
-2.50124e-11
-2.63326e-11
7.39324e-13
1.47831e-13
0
-2.27671e-11
1.47835e-13
1.47871e-13
1.96758e-11
0
-2.60375e-11
-2.1144e-11
-2.95575e-13
-1.74381e-11
-1.81823e-11
-4.3461e-11
1.47788e-13
4.3599e-11
2.95725e-13
0
1.90783e-11
-1.96597e-11
0
3.69551e-12
1.03547e-12
-2.86981e-11
0
2.95578e-13
-1.47829e-13
1.03529e-12
-2.42516e-11
2.77885e-11
-7.3895e-13
-2.95797e-13
-2.51691e-11
4.44175e-13
-1.4793e-13
-2.05482e-11
4.39065e-11
4.43658e-12
-1.47875e-13
2.35015e-11
2.39412e-11
2.95791e-13
1.48054e-13
0
1.78996e-11
-4.43485e-13
0
1.83381e-11
1.47893e-13
1.4781e-13
5.02345e-11
-1.47804e-13
0
-1.47931e-13
-1.89238e-11
-1.47787e-13
2.4688e-11
0
-1.95279e-11
-1.47854e-13
1.47768e-13
0
-2.57209e-11
-1.33045e-12
2.86713e-11
-7.38965e-13
-7.39345e-13
-2.95898e-13
0
1.47931e-13
-5.91425e-13
-2.15821e-11
0
1.47834e-13
-3.03052e-11
-4.43589e-13
-1.95278e-11
-4.44018e-13
0
4.4399e-13
4.43817e-13
1.47899e-13
-1.47888e-13
1.29569e-13
3.23532e-12
-1.85133e-13
2.59037e-13
2.96102e-13
1.30214e-11
5.91782e-13
-1.80457e-11
1.47896e-13
1.331e-12
-5.91561e-13
0
1.99692e-11
8.87693e-13
1.47972e-13
0
1.47914e-13
7.39417e-13
-1.86316e-11
2.0702e-11
-6.95003e-12
-7.54157e-12
-4.43667e-13
-4.43754e-13
0
1.95241e-11
-1.03515e-12
2.95708e-13
-1.89256e-11
-4.43625e-13
-2.4104e-11
-1.99615e-11
1.83349e-11
1.78941e-11
2.95828e-13
1.9077e-11
7.39291e-13
-2.95695e-13
2.46953e-11
1.80461e-11
4.14183e-12
4.58454e-12
2.45452e-11
-7.3935e-13
-7.39462e-13
-7.39363e-13
1.9073e-11
2.02563e-11
2.95813e-13
-4.74978e-11
-3.40339e-11
4.43772e-13
5.91512e-13
-2.95741e-13
-1.47885e-12
1.47872e-13
-1.47851e-13
-2.95707e-13
4.43713e-13
0
-1.03582e-12
-2.95848e-13
-1.99635e-11
0
2.51406e-11
-1.47882e-13
2.5283e-11
1.96627e-11
1.47869e-13
2.73644e-11
2.55906e-11
5.11694e-11
-5.9145e-13
2.01106e-11
2.95791e-13
1.47907e-13
0
-2.95691e-13
2.40992e-11
-4.43613e-13
-2.69134e-11
-1.47862e-13
0
0
-2.01168e-11
-1.47939e-13
2.51445e-11
2.32167e-11
5.91452e-13
-2.69118e-11
-1.62656e-12
-5.9148e-13
1.47885e-13
-7.39588e-13
-3.69869e-12
1.47964e-13
0
1.4791e-12
-1.47889e-13
0
2.11658e-11
1.34941e-12
2.44059e-11
-3.04768e-11
-2.95943e-13
-6.95233e-12
1.03536e-12
1.47892e-13
-2.95763e-13
2.21818e-12
2.9576e-13
-2.9577e-13
5.91586e-13
0
1.47926e-13
2.54398e-11
2.66206e-11
-8.87275e-13
-7.39376e-13
2.08508e-11
1.5971e-11
-8.87279e-13
1.47885e-13
-1.96704e-11
2.95821e-13
1.90773e-11
2.02589e-11
-4.43609e-13
-1.77453e-12
1.81906e-11
-6.6552e-12
-1.99644e-11
-2.48436e-11
-4.4365e-13
2.95786e-13
2.07019e-12
4.43596e-13
-2.95742e-13
-1.47895e-13
2.64779e-11
2.84016e-11
1.47905e-13
-2.95768e-13
-8.87265e-13
-7.39405e-13
2.42496e-11
-4.43588e-13
7.39387e-13
2.95827e-13
1.77539e-12
-2.95908e-13
4.43779e-13
2.07052e-11
-1.84848e-11
-4.28842e-12
0
-2.38057e-11
2.95752e-13
4.43736e-13
-1.47949e-13