/*--------------------------------*- C++ -*----------------------------------*\
  =========                 |
  \\      /  F ield         | OpenFOAM: The Open Source CFD Toolbox
   \\    /   O peration     | Website:  https://openfoam.org
    \\  /    A nd           | Version:  10
     \\/     M anipulation  |
\*---------------------------------------------------------------------------*/
FoamFile
{
    format      ascii;
    class       volScalarField;
    location    "0.8";
    object      gradTy;
}
// * * * * * * * * * * * * * * * * * * * * * * * * * * * * * * * * * * * * * //

dimensions      [0 -1 0 1 0 0 0];

internalField   nonuniform List<scalar> 
46825
(
-2.98172e-13
0
0
1.78459e-11
1.03996e-12
-1.35195e-11
4.46156e-13
-1.4298e-11
1.49078e-13
7.45498e-13
1.50406e-11
1.18533e-14
1.94235e-11
3.25206e-11
8.88181e-14
-1.33206e-11
7.32036e-13
3.95637e-12
3.02266e-13
7.74353e-13
5.12368e-13
-1.8223e-13
6.36155e-13
-1.66176e-11
-1.43288e-12
-2.05671e-13
1.74917e-13
3.95986e-11
-2.06028e-13
-5.85833e-13
-3.01473e-11
-3.38221e-13
-1.91461e-11
-1.48085e-11
-1.72558e-14
1.98998e-13
-2.78375e-14
2.06666e-11
-4.84493e-13
3.15537e-13
1.48082e-11
-4.81572e-14
1.41358e-11
1.69688e-11
4.49266e-14
1.73761e-11
-6.12338e-15
-2.07517e-11
-4.09473e-14
-2.41753e-13
1.55789e-11
1.36492e-11
7.09611e-12
1.48003e-11
-6.3318e-13
1.03441e-12
1.87915e-13
-1.98639e-11
-1.08153e-13
-1.05111e-13
-1.45049e-11
1.26677e-13
-1.46954e-11
9.3598e-12
1.69282e-13
-1.77316e-11
5.62708e-14
-1.51229e-11
1.11633e-13
2.84099e-13
-6.28292e-13
-1.33527e-11
-2.1015e-11
-1.48912e-11
3.74577e-13
-7.91219e-13
2.28808e-14
1.91865e-13
5.48719e-14
-3.83379e-13
-1.46552e-13
3.56492e-13
1.08873e-13
-1.02668e-11
2.53838e-14
0
-4.04918e-13
1.50599e-11
4.474e-14
2.02029e-14
0
-1.49096e-13
1.35553e-11
-7.43695e-13
0
0
2.9749e-13
-1.04278e-12
0
-2.98252e-13
0
1.49346e-13
0
-1.82068e-11
1.35761e-11
0
-7.4618e-13
-1.35899e-11
0
-1.43247e-11
-1.16653e-15
-5.69856e-15
9.72709e-12
5.98216e-12
-4.82394e-12
-4.82402e-12
-2.61727e-13
-2.7424e-11
-1.70891e-13
-1.48825e-11
3.11807e-14
-3.77398e-13
-3.80565e-11
2.49279e-11
-2.05353e-11
-9.10145e-13
-9.43289e-13
1.0031e-11
1.03183e-13
-1.44286e-13
-2.15923e-13
1.58546e-13
1.90894e-12
-7.82269e-13
2.74277e-12
2.24128e-12
5.46001e-13
-5.33984e-13
1.00257e-12
7.53268e-14
-7.61812e-14
8.89868e-14
3.54585e-11
-2.15691e-13
3.35223e-11
3.31496e-11
6.12738e-13
-6.41414e-14
-1.23416e-13
3.55848e-13
-1.65343e-14
1.38855e-11
-3.75381e-13
1.36114e-13
-3.40437e-11
-3.38209e-11
4.97669e-11
3.23969e-13
-1.05148e-12
-3.70002e-14
3.37674e-13
-3.68641e-13
-3.09901e-13
-6.82798e-13
-4.28076e-13
-2.38508e-13
-5.07373e-11
3.0116e-11
-2.39649e-11
1.97463e-13
-5.24886e-12
-1.38213e-11
-3.03199e-11
-4.24274e-12
-3.23538e-11
-1.05323e-12
-2.93688e-13
-2.84759e-11
2.56562e-13
4.47867e-13
3.0193e-14
5.17091e-13
-8.60696e-13
8.22704e-13
9.6479e-12
4.63702e-12
-7.8533e-13
-7.82148e-12
2.41421e-11
-1.59352e-11
5.07349e-12
4.48054e-13
-4.47996e-13
1.49228e-13
4.47528e-13
-1.46195e-11
4.47715e-13
1.5532e-11
0
-1.61168e-11
-4.07216e-11
-1.49274e-13
-2.53556e-11
-1.19217e-12
1.96745e-11
1.34142e-12
-4.08302e-11
6.86102e-12
1.49293e-13
2.98382e-13
-1.7387e-11
4.10833e-13
-2.52338e-11
-2.89879e-11
-1.29268e-11
-3.67872e-12
-3.09663e-11
-4.44518e-13
-2.06332e-13
2.47442e-13
3.88598e-11
2.29886e-13
-3.48343e-11
2.94873e-10
4.87033e-10
4.344e-10
4.93074e-10
-3.9752e-11
4.48129e-13
1.88295e-11
-3.51954e-12
1.03367e-13
6.85864e-11
-2.24818e-07
-2.79178e-07
-2.85812e-07
-2.43281e-07
-1.01274e-08
-4.49415e-13
-2.42218e-11
-1.87157e-11
-9.16074e-14
-7.22895e-11
-1.38065e-08
6.50691e-08
6.90854e-08
5.23593e-08
-2.01917e-09
-4.90426e-13
-1.87682e-11
-1.16271e-13
3.33056e-11
8.00544e-11
4.25115e-09
-1.54964e-08
-1.61172e-08
-1.30642e-08
6.09429e-10
1.98741e-12
2.39551e-11
1.66005e-13
-7.31027e-11
-3.50914e-11
6.11507e-08
-1.86724e-07
-1.93799e-07
-1.5782e-07
6.68716e-09
-1.97659e-12
1.40202e-11
-2.35511e-13
8.6113e-11
2.48359e-13
7.3777e-09
3.93205e-08
4.04439e-08
3.5927e-08
-4.75113e-11
9.23132e-13
5.18304e-13
5.83028e-14
-4.52076e-11
-6.3239e-12
2.94985e-11
6.46647e-13
-1.94098e-11
5.25409e-13
1.98731e-12
-6.91671e-13
-1.35739e-11
-1.49171e-13
0
0
-1.17683e-11
-5.8112e-12
2.25004e-11
4.46932e-12
0
-6.11975e-12
-4.47561e-13
-2.872e-11
2.30363e-11
-5.9072e-13
-1.15932e-11
-1.39196e-11
-2.59326e-11
-2.03937e-11
-9.74665e-12
3.71635e-12
-1.48854e-13
-1.23563e-13
5.33704e-11
4.48495e-12
1.30159e-08
1.01959e-08
1.01085e-08
1.0423e-08
8.04423e-09
-1.15602e-12
-1.73729e-11
3.12645e-11
-3.10743e-11
-3.07252e-09
7.80438e-05
8.0825e-05
8.12823e-05
8.03575e-05
7.96111e-05
8.12895e-09
-1.47064e-13
2.72144e-13
-3.3486e-11
-3.10362e-07
-0.981025
-1.5237
-1.53171
-1.51193
0.190597
2.62635e-08
2.77095e-12
-1.80734e-11
-5.83409e-11
-3.20304e-09
-0.00685153
-0.0231886
-0.0241642
-0.0220272
-0.0153534
1.38464e-09
1.51539e-11
-9.13206e-13
2.80698e-11
6.75716e-09
0.000623215
0.00151392
0.0014878
0.00148291
-0.0168467
-2.23149e-10
1.48296e-11
1.4994e-11
2.7933e-11
1.19784e-08
0.0371422
0.0668718
0.0676501
0.0670225
-0.0191188
-5.07957e-09
-1.59588e-11
5.74607e-13
5.37432e-11
7.93324e-07
-0.0254214
1.04859
1.05367
1.03637
-0.0584212
-4.56668e-08
-1.34932e-13
-2.20669e-13
4.48543e-13
9.03137e-08
4.26071e-06
3.85713e-06
3.8212e-06
3.91305e-06
2.56652e-06
2.08663e-11
1.25679e-12
-1.48808e-13
-2.58515e-11
1.22509e-11
1.46659e-12
1.52325e-11
1.27428e-11
4.54671e-12
1.90427e-11
4.45814e-12
4.46502e-13
-2.97237e-13
6.97474e-12
-7.49726e-12
-8.45281e-11
-1.00644e-10
-7.05566e-11
-7.53386e-11
1.26382e-11
-2.9685e-11
0
3.33495e-12
1.77909e-13
-9.26143e-10
-2.95097e-07
-4.54136e-07
-4.36253e-07
-4.80144e-07
2.68071e-08
-2.17141e-11
-1.48278e-11
3.97077e-13
4.8314e-11
-1.97111e-06
0.105441
-1.14858
-1.15163
-1.14671
0.0132009
1.96158e-08
-1.53171e-11
-3.16986e-12
3.18089e-09
0.0257849
9.2156e-06
1.51866e-11
-1.45924e-11
1.30249e-09
0.000689669
1.63262e-06
3.61402e-11
1.67721e-13
-2.05461e-10
0.000116974
-1.76062e-07
-6.16358e-13
1.43792e-11
-3.10078e-09
-0.0011399
-5.21005e-06
-2.17013e-11
-1.41507e-11
2.42081e-10
0.00120377
2.56413e-06
-1.55963e-11
-9.08664e-13
-3.15247e-14
6.67858e-07
0.000941474
0.00117307
0.00117613
0.00116256
-6.55283e-05
5.32216e-10
1.07763e-11
1.27813e-11
8.90069e-13
-2.11539e-11
5.38408e-11
8.00795e-11
6.83718e-11
5.44227e-11
6.31719e-12
1.18703e-11
2.63111e-11
1.81371e-11
1.91649e-11
-1.47142e-11
-4.45539e-11
-6.68361e-11
-5.44139e-11
-4.2207e-11
4.99987e-12
4.75424e-12
-1.4871e-13
-1.52546e-13
1.88688e-11
-9.80308e-10
-1.9551e-07
-4.8384e-07
-4.56246e-07
-5.1061e-07
2.75315e-08
-7.39592e-13
-2.05399e-13
-1.86367e-11
2.01913e-11
-2.08921e-06
-0.97103
-1.19974
-1.20306
-1.19622
0.0144082
4.26898e-08
-1.70757e-11
4.13779e-13
3.5805e-09
0.0321383
1.97702e-05
2.09284e-11
4.26905e-13
1.86232e-09
0.000889962
1.84151e-06
3.38828e-11
-1.55242e-11
-2.0082e-10
0.000182494
-2.31312e-07
-3.44546e-11
-3.36665e-13
-4.28222e-09
-0.00157768
-6.84941e-06
-2.715e-11
-1.05937e-11
3.72385e-10
0.00131113
2.88839e-06
1.41338e-11
4.7417e-13
-3.56756e-13
6.97813e-07
0.000966829
0.001275
0.00127941
0.00125613
-6.98238e-05
6.5002e-10
2.5385e-11
2.58685e-11
9.80103e-12
-2.70504e-11
4.59699e-11
7.28747e-11
7.59048e-11
4.53894e-11
-3.33726e-11
-1.87143e-11
1.4721e-11
3.48074e-11
2.89939e-11
-2.87146e-11
-4.42871e-11
-5.80546e-11
-5.2128e-11
-2.14794e-11
1.619e-12
1.91823e-11
-1.48796e-13
1.4171e-11
5.06877e-11
-1.0477e-09
-1.79063e-07
-4.53826e-07
-4.36225e-07
-4.93383e-07
2.77001e-08
1.71165e-11
-3.29272e-13
-2.13798e-12
1.72542e-11
-2.10746e-06
-0.972833
-1.2022
-1.20547
-1.19829
0.0144462
4.35279e-08
-1.52039e-13
3.46421e-13
3.34946e-09
0.0323001
1.98339e-05
9.87889e-13
-1.77946e-11
1.83985e-09
0.000890912
1.73288e-06
-2.71427e-14
-7.47685e-13
-2.75816e-10
6.20639e-05
-3.05725e-07
-1.58779e-13
-9.64142e-13
-4.19962e-09
-0.00169975
-7.07275e-06
5.07474e-13
4.75044e-13
3.22226e-10
0.0013144
2.88891e-06
6.61258e-15
3.21e-13
-2.38677e-13
6.99956e-07
0.000969503
0.00127981
0.00128433
0.00126037
-7.02437e-05
6.64374e-10
-6.26337e-13
-2.97522e-13
-1.4863e-13
2.56027e-11
4.41122e-11
4.591e-11
6.17911e-11
4.28055e-11
6.91565e-12
-4.90554e-12
2.97578e-13
2.97648e-13
-3.10925e-11
7.66158e-12
-4.5623e-11
-6.01177e-11
-7.41272e-11
-4.82139e-11
2.40042e-11
-2.24655e-11
1.48866e-13
-1.83907e-11
-3.04363e-11
8.06379e-11
-1.77411e-07
-4.55403e-07
-4.33927e-07
-4.92393e-07
2.74821e-08
-2.31106e-11
1.82588e-13
-2.01327e-15
9.90754e-13
-2.06746e-06
-0.972826
-1.2023
-1.20561
-1.19846
0.0144862
4.34035e-08
-2.7606e-14
4.2453e-12
3.42615e-09
0.032254
1.9822e-05
2.65306e-13
-3.90503e-13
1.88449e-09
0.000890814
1.70317e-06
5.00198e-14
1.41779e-11
-2.76254e-10
6.20835e-05
-3.93086e-07
-1.85999e-13
-4.0804e-13
-4.23062e-09
-0.00169971
-9.70212e-06
-6.1409e-13
-9.3226e-14
3.68441e-10
0.00132202
1.30922e-06
-4.02854e-15
-2.35481e-13
2.71196e-13
6.97705e-07
0.00096983
0.00128037
0.00128486
0.00126088
-7.02405e-05
5.35939e-10
1.51249e-13
1.48836e-13
-1.42764e-11
-4.56402e-12
3.296e-11
4.23309e-11
6.64584e-11
4.99485e-11
1.07479e-11
5.6518e-12
-1.48862e-13
-1.93545e-11
2.53e-12
1.76905e-12
-6.95284e-11
-9.24823e-11
-5.91894e-11
-7.72042e-11
-3.38921e-12
1.48838e-13
0
-3.51249e-11
-4.10897e-13
5.85773e-11
-1.87391e-07
-4.70509e-07
-4.52915e-07
-5.07514e-07
2.76925e-08
-9.24117e-13
5.27332e-13
1.48055e-11
6.25172e-12
-2.0593e-06
-0.972445
-1.2015
-1.20474
-1.19763
0.0144336
4.34721e-08
3.03277e-13
1.60821e-11
3.60174e-09
0.0322422
1.9663e-05
4.99155e-13
1.04363e-13
1.82444e-09
0.000890253
1.6595e-06
-1.46881e-11
-2.99197e-13
-2.34441e-10
6.21829e-05
-3.80209e-07
-2.45305e-11
-1.50455e-11
-4.24209e-09
-0.00169878
-7.74109e-06
1.45747e-11
5.64307e-14
3.64869e-10
0.00131474
6.23376e-06
2.46556e-11
-6.71046e-15
3.04835e-11
6.98779e-07
0.000969001
0.00127731
0.00128166
0.00125837
-6.99067e-05
2.06398e-11
-1.26038e-13
1.48893e-13
-4.01673e-12
3.09366e-11
4.33209e-11
6.55481e-11
7.92945e-11
4.73914e-11
4.41968e-12
2.61869e-11
0
0
7.44302e-13
-9.73644e-12
-5.10182e-12
-1.72751e-11
-1.59674e-12
1.45721e-13
-5.0145e-12
4.76426e-12
1.4896e-13
2.12154e-14
1.10269e-13
5.70053e-11
-8.16678e-08
-1.12307e-07
-8.99402e-08
-1.5723e-07
2.36579e-08
4.07022e-13
-3.11854e-13
1.40322e-11
3.64215e-11
-2.03983e-06
-0.956914
-1.16691
-1.16944
-1.16406
0.0134788
3.85874e-08
-5.89496e-13
4.69325e-13
1.32778e-09
0.027322
1.39452e-05
1.19376e-13
-1.41878e-11
3.32784e-10
0.000695287
1.00954e-06
3.96729e-13
-1.76774e-11
-2.26165e-11
6.00475e-05
-1.77022e-07
2.61812e-13
1.65972e-13
-1.11852e-09
-0.00120256
-4.03387e-06
-3.73715e-13
1.69497e-11
2.54248e-10
0.00127556
2.2299e-06
-1.06586e-13
-2.04025e-13
1.10646e-12
6.85351e-07
0.000833111
0.000948072
0.000949622
0.00094693
-6.21003e-05
6.11904e-10
1.1075e-13
-1.4893e-13
2.97625e-13
9.87864e-12
-2.28744e-11
-4.20886e-12
-1.59648e-12
-4.80805e-12
-2.84576e-11
-2.9768e-13
0
4.31934e-12
2.30748e-11
1.47498e-13
4.66371e-12
-5.51621e-12
4.93548e-12
-3.86185e-11
0
1.93559e-12
1.48968e-13
-1.50491e-11
2.85544e-11
3.32089e-11
7.92207e-10
7.62799e-10
7.73318e-10
7.38164e-10
7.90213e-11
-3.01098e-12
2.8911e-13
-1.80351e-11
-2.08361e-12
-1.80296e-07
-0.000316578
-0.000326712
-0.000327183
-0.000326394
-0.000293049
7.20296e-10
1.36891e-11
1.4514e-13
2.99354e-11
2.38563e-06
-9.86452e-09
2.21546e-13
-3.45508e-13
-4.03647e-11
8.33356e-08
-7.25981e-10
-1.44712e-11
-1.52944e-11
2.88578e-11
-1.22733e-08
9.65158e-11
-3.99586e-13
5.7157e-13
-2.44725e-11
-1.21303e-07
2.59014e-09
1.24375e-13
1.52258e-11
0
-1.06545e-05
1.07604e-08
7.74861e-13
-3.15902e-13
8.38925e-12
3.01605e-08
-1.03405e-06
-1.08386e-06
-1.087e-06
-1.07224e-06
-4.39772e-07
7.82898e-12
5.60191e-13
1.48953e-13
-1.33946e-12
1.76943e-12
0
2.9028e-13
-1.46591e-11
-1.45704e-13
7.07783e-12
0
1.48964e-13
-4.46831e-13
0
0
-8.72492e-13
-2.5039e-11
-3.24207e-11
4.6534e-12
-1.59188e-11
8.337e-12
1.19166e-12
1.56957e-14
2.98138e-13
-3.0574e-11
-2.92748e-13
-2.95891e-11
-4.10475e-12
-2.63312e-11
-2.19998e-11
1.97102e-11
1.01806e-12
6.48372e-13
-2.97817e-13
6.11983e-13
6.10962e-13
-5.11721e-13
2.26124e-13
3.80522e-11
-2.30055e-11
6.02678e-13
-1.67994e-11
1.97825e-11
3.27864e-11
7.29058e-11
-4.40836e-13
-6.67525e-13
-1.81961e-13
-6.06411e-11
-1.12023e-13
-2.62492e-13
1.64705e-11
-1.94525e-11
2.75597e-11
5.72602e-13
-3.94758e-11
-1.61015e-11
2.14682e-11
2.92563e-13
-4.91446e-13
3.86559e-11
-1.47733e-11
-1.81934e-13
-3.32458e-11
-1.21276e-10
8.77553e-13
1.69238e-11
-2.15019e-11
3.37462e-11
-1.31036e-11
2.17587e-13
1.44079e-11
1.46546e-12
1.95979e-11
-7.31297e-14
4.27829e-11
1.50653e-11
1.48945e-13
5.80386e-12
-1.47362e-13
0
4.63092e-12
5.64387e-12
4.79792e-12
-7.36742e-13
-3.25942e-11
0
0
5.49218e-11
-5.00883e-12
-5.0845e-12
1.82123e-11
-1.72007e-11
-7.40917e-12
8.84017e-13
-8.63345e-12
2.97885e-13
-4.95529e-14
3.90601e-11
4.32877e-13
2.92689e-13
1.93274e-11
-1.7585e-11
0
3.42388e-11
1.76224e-11
5.85606e-14
-6.84649e-14
5.95729e-12
-7.34682e-11
-6.96786e-11
-1.57978e-11
2.42235e-11
2.06081e-11
-4.78171e-11
3.10117e-12
-3.22786e-13
-9.57478e-14
-2.92689e-13
0
1.21728e-11
-2.70807e-13
1.22089e-13
0
6.48756e-11
2.26394e-13
1.12064e-13
-6.7328e-13
0
-6.85343e-11
8.4057e-14
1.50966e-11
9.7605e-14
-5.55649e-12
-5.888e-13
3.93605e-11
-2.13734e-11
1.52889e-11
5.88468e-12
9.31723e-13
-4.01397e-11
-1.53891e-11
1.51297e-11
-4.4801e-12
0
8.20366e-12
2.1968e-13
1.07134e-11
8.09544e-12
-1.442e-11
0
2.13267e-11
2.97867e-13
-3.86891e-12
-2.1801e-11
0
1.79211e-11
1.21401e-11
-4.35757e-13
-2.79853e-12
-4.91078e-12
5.95761e-13
5.95711e-13
5.35794e-12
0
5.66441e-12
1.24274e-11
-4.76866e-12
-4.35738e-13
-1.47313e-11
-2.53025e-11
1.9659e-11
8.98754e-13
6.26811e-13
-4.26482e-13
-4.44955e-13
1.25944e-11
-2.93136e-13
-5.84976e-13
-1.99295e-11
-2.65848e-11
1.00989e-13
-3.00012e-13
-5.95769e-13
-6.55192e-11
-7.78686e-13
1.29953e-12
1.18199e-12
1.17784e-12
4.19128e-11
-3.01977e-13
-5.74192e-12
-1.56434e-11
-2.22964e-14
-3.48716e-12
1.70335e-13
-2.32728e-13
-7.49982e-14
-3.04587e-11
-2.94955e-12
3.79719e-13
-1.38795e-11
1.55959e-11
2.98984e-11
-6.44179e-11
4.63153e-14
1.597e-11
-3.23955e-13
5.84978e-13
1.76675e-12
1.97453e-12
-6.18378e-14
1.69141e-11
-5.88444e-13
-8.70306e-11
-1.17127e-12
-1.56594e-11
1.00721e-13
1.7623e-11
8.18602e-13
3.56094e-12
-4.39619e-13
4.69866e-12
-1.5249e-11
-7.02853e-12
-2.78498e-11
2.87134e-13
-1.69778e-11
-1.01181e-11
4.4183e-12
5.80911e-13
-6.50203e-12
-5.05712e-12
-1.81531e-11
1.72317e-11
2.08325e-12
4.46789e-13
2.82973e-12
4.46497e-13
1.47319e-13
6.68317e-12
-2.64551e-11
4.33689e-13
-1.58361e-11
4.71424e-12
3.27435e-12
-1.683e-11
-1.84133e-11
2.80355e-12
-4.19483e-13
1.60924e-13
-2.63307e-11
1.07536e-11
2.0179e-11
-1.12065e-11
1.70878e-13
-1.70413e-11
2.15608e-12
-2.08499e-12
5.8502e-11
6.6968e-13
1.13596e-11
-1.77289e-12
-4.41666e-11
3.97541e-11
-3.01956e-13
-4.22868e-14
2.10301e-11
-7.53209e-13
5.81142e-13
4.42862e-14
-1.33916e-13
2.00005e-11
1.45337e-13
2.35958e-12
-2.97757e-11
-1.99321e-13
-5.02137e-13
6.18336e-13
-1.77288e-11
2.85448e-11
3.79172e-13
-2.13082e-11
-1.16978e-12
0
-3.66993e-13
1.37554e-11
-1.55359e-11
5.29552e-11
2.03012e-12
-3.09559e-11
-1.4616e-11
-5.29745e-13
-5.21112e-11
-3.46079e-11
-1.01012e-11
8.57072e-12
1.71748e-11
-3.07825e-11
2.34256e-11
3.20888e-11
-1.35688e-11
1.54888e-11
-8.18398e-12
0
-2.3097e-11
-1.44546e-13
3.45467e-11
0
1.4729e-13
2.08327e-12
1.42978e-11
1.57877e-11
1.08656e-11
1.47385e-13
3.92775e-12
9.41352e-12
5.79287e-12
2.03656e-12
4.42148e-12
0
-2.87473e-11
-1.47251e-11
-1.04329e-11
1.69531e-12
-1.05737e-12
-1.01819e-11
2.93072e-13
1.8621e-12
-8.99576e-12
-9.85301e-12
-1.47626e-11
-1.5115e-11
-2.38193e-12
-3.51429e-12
-9.21145e-13
3.17723e-13
0
5.88424e-13
-2.0301e-11
0
1.37059e-11
1.52411e-11
9.11151e-13
-6.389e-11
-4.57179e-13
-1.24285e-13
1.36889e-13
6.76015e-13
-6.01176e-11
-5.21538e-14
-3.7199e-13
1.4733e-11
0
0
-1.95611e-13
1.44812e-13
-4.1992e-13
-3.83285e-11
-6.41325e-11
2.21999e-14
2.49446e-13
3.46865e-13
3.73507e-11
1.10225e-12
1.80791e-12
-2.7604e-13
4.53753e-14
1.05912e-12
-1.15273e-12
-1.09619e-11
7.60779e-12
3.22477e-12
9.83632e-12
1.03121e-11
-1.78971e-13
-8.42668e-14
-1.45969e-11
4.19643e-11
5.59947e-12
-4.36357e-12
-2.80921e-11
2.17206e-12
-4.65435e-12
5.74675e-12
2.97637e-11
2.97897e-13
0
0
1.26869e-11
1.77872e-11
-5.08332e-12
-9.7306e-12
7.58049e-12
2.95014e-13
6.25358e-12
1.48985e-13
1.92068e-13
-9.29157e-13
4.26126e-13
2.3606e-11
-1.26613e-12
-3.8614e-12
6.68496e-13
-3.27684e-13
3.03304e-11
1.46533e-13
1.58409e-14
8.92868e-13
-1.3221e-12
3.7106e-11
3.51818e-11
2.36659e-12
-2.7212e-11
-2.407e-11
-3.1008e-11
-4.63744e-14
9.73624e-14
-7.92964e-13
6.40298e-11
2.59274e-13
-1.94586e-13
-2.88659e-13
3.938e-11
-6.39307e-13
-7.41097e-13
1.11288e-13
-8.22548e-15
-3.89975e-11
0
-2.83103e-11
1.41818e-14
-3.26571e-13
-4.18674e-14
-5.38641e-11
2.84309e-11
-1.29257e-13
-6.22314e-14
2.86478e-13
-2.92666e-12
1.01662e-11
-1.40307e-11
9.75346e-14
5.31953e-12
6.03348e-13
-2.26263e-12
1.98244e-11
2.45841e-11
-2.97322e-11
-3.14853e-11
-9.80016e-12
-6.20798e-13
-1.4898e-13
-1.042e-12
1.4749e-13
0
-1.45213e-13
0
3.17745e-11
2.30059e-11
0
1.38556e-11
1.44497e-11
0
6.49199e-12
5.82853e-13
0
0
-5.68108e-12
-6.63779e-12
5.06336e-12
1.04302e-11
-8.91854e-12
2.32988e-13
3.75294e-11
-4.4858e-11
-3.70635e-11
4.23612e-11
3.48192e-11
5.01865e-14
-1.20961e-11
3.38188e-13
-1.42633e-11
-2.97779e-13
-1.08027e-10
5.97932e-11
7.09031e-11
-5.96624e-13
1.8749e-11
-3.55852e-11
-1.6469e-12
-2.47906e-11
9.47403e-12
7.80204e-13
-1.69363e-13
1.69147e-12
-1.61879e-13
-3.25783e-15
-2.92675e-12
-1.1311e-11
-4.62241e-13
1.45522e-11
-4.03703e-14
5.88307e-13
1.34884e-12
-4.52363e-11
-1.54959e-11
-3.81224e-14
1.48784e-12
-7.22431e-11
5.68674e-11
-2.19628e-13
-1.12931e-13
4.42969e-13
-1.05827e-12
-1.17184e-11
1.52615e-11
4.43402e-13
-3.90184e-15
-4.35507e-11
1.38587e-12
2.15957e-11
9.15525e-12
-2.2027e-13
1.09109e-11
6.51359e-13
1.53344e-13
4.47002e-13
-3.97523e-11
4.27679e-12
5.38904e-12
0
0
7.1364e-12
-7.2257e-12
-3.2903e-11
2.98001e-13
0
5.80672e-12
5.45631e-12
6.69091e-12
2.89397e-13
-5.78735e-13
5.67009e-12
1.03179e-12
-8.93382e-13
-1.9965e-11
-5.11486e-14
2.98173e-13
2.51962e-13
-3.55155e-11
-8.78508e-13
-3.01881e-11
-4.06564e-11
4.28158e-11
-2.98717e-13
-1.54194e-11
1.79592e-13
1.93606e-11
-6.83869e-14
4.72188e-11
9.83237e-11
7.31305e-11
5.17376e-11
-4.03021e-12
3.64139e-12
1.84618e-12
-5.82803e-13
-1.79475e-11
-8.80364e-11
-2.24479e-11
1.49765e-11
-1.18598e-13
-1.17123e-12
0
1.03184e-13
3.07835e-12
6.53123e-13
3.01866e-11
0
-4.83469e-13
-3.98564e-12
3.39584e-13
-3.01069e-11
-5.87926e-13
-3.64321e-14
1.55628e-11
-1.7106e-11
2.94202e-13
6.8529e-11
-4.3887e-13
1.7141e-11
1.84775e-11
3.93513e-11
-2.08776e-11
1.52488e-12
-2.26056e-11
-2.85836e-11
2.45554e-11
3.27065e-11
-4.68712e-14
1.77149e-11
3.53119e-11
1.39929e-11
3.38926e-12
1.5699e-11
1.4466e-13
1.4466e-12
5.37827e-12
-1.90086e-11
1.63745e-12
4.46999e-12
-5.95845e-13
3.27559e-12
-2.22638e-11
0
-1.44589e-13
-1.44574e-13
-7.11992e-12
-2.94722e-13
-6.55141e-12
0
2.1091e-12
1.52953e-11
-2.23781e-11
3.42507e-11
-3.08738e-13
-3.55753e-13
1.43826e-13
-3.4731e-11
4.88606e-11
-9.16831e-13
7.97923e-13
-7.02945e-11
1.22764e-12
-1.54773e-11
-9.37715e-11
2.4818e-11
-1.23658e-11
5.08458e-11
-3.44232e-11
1.89115e-11
-2.35364e-12
3.79441e-11
-4.0583e-12
1.30108e-12
1.35397e-12
-1.13496e-13
-4.41794e-13
0
-6.60743e-13
-1.9012e-11
2.52691e-14
-5.20529e-14
1.1227e-11
5.31673e-13
-5.58134e-12
-9.19441e-14
-3.2345e-13
0
-2.84361e-13
-1.23731e-13
-1.07924e-13
5.88444e-13
-1.74183e-12
-1.03612e-12
5.33872e-12
2.03555e-14
-2.73051e-11
-4.27301e-11
-1.08287e-11
-1.02554e-12
-4.25672e-12
-9.99324e-12
-7.3207e-14
-4.8775e-13
4.12129e-13
0
-4.9124e-12
1.90054e-11
-2.67318e-11
-5.4929e-12
-4.19186e-12
-5.52054e-12
-3.00543e-11
-2.08401e-11
0
0
-4.02125e-12
-6.93194e-12
2.37077e-11
-1.79388e-11
1.80816e-11
4.3467e-11
-8.69761e-12
5.95772e-13
1.93775e-12
3.17747e-13
1.13017e-12
4.15705e-11
2.33568e-11
-3.74259e-11
3.04956e-11
4.3272e-11
1.77791e-13
-1.90153e-11
-3.05308e-11
3.03856e-12
-5.95749e-13
-3.70137e-11
4.43846e-13
2.53628e-11
0
0
1.87218e-11
1.96293e-11
-1.79883e-11
-5.52248e-13
-1.52555e-13
1.5075e-11
-3.13783e-11
1.50783e-11
-2.68388e-12
-6.4169e-13
2.94916e-11
3.12445e-11
4.47467e-13
4.30952e-13
1.23357e-12
0
-2.77885e-11
5.38173e-14
-3.36157e-13
-1.38626e-12
0
2.83381e-11
-1.50199e-11
-2.60072e-11
0
-7.0667e-13
-2.92777e-13
-1.43386e-13
1.69059e-13
-1.42888e-13
9.60707e-12
-1.2791e-11
-4.39568e-13
-2.57644e-11
-6.1495e-11
1.28846e-11
-4.41651e-13
1.49074e-11
2.59358e-11
-9.82806e-12
-1.47386e-13
1.45353e-13
-1.44632e-13
4.62818e-12
6.5408e-12
5.74785e-12
5.50955e-12
1.49064e-13
0
-7.45265e-13
9.5989e-12
3.10502e-11
2.46642e-11
-1.4507e-13
-1.07832e-11
1.90443e-11
4.39742e-11
1.71536e-11
-2.00834e-11
3.32617e-11
2.90925e-14
2.35121e-11
5.92889e-11
1.65207e-12
-3.81933e-11
1.89956e-11
3.21978e-11
1.72662e-11
1.38506e-11
-3.45429e-11
-3.58591e-13
-1.00288e-12
-6.05348e-11
-9.18257e-13
4.90243e-11
1.58398e-12
-3.62188e-11
-1.41882e-11
3.87588e-11
-1.39849e-13
2.8988e-12
3.49967e-11
1.13832e-15
1.57433e-13
6.42071e-13
1.17918e-12
-3.05359e-13
1.45972e-11
-1.8664e-11
-5.90139e-14
1.41225e-10
-2.58432e-14
3.70033e-13
-2.86239e-11
-2.94245e-13
3.31117e-13
-2.16329e-13
-1.6963e-13
-4.49776e-14
8.82672e-13
2.35343e-12
-3.54271e-13
-3.82644e-13
-2.79438e-12
-3.44472e-11
-2.6286e-11
2.88274e-11
3.65854e-13
-1.39278e-12
-2.91481e-13
-2.56063e-12
2.334e-13
-1.46378e-12
-1.74518e-11
3.35345e-11
1.18082e-11
3.17629e-11
0
-2.08877e-11
2.28753e-11
4.42799e-12
-6.70687e-12
-1.6409e-12
0
4.47824e-13
-2.07518e-12
-5.13907e-12
5.85517e-13
0
1.46796e-13
-2.38608e-11
-2.43334e-11
-1.37336e-11
-2.58406e-11
-1.289e-11
-7.11429e-12
8.90117e-12
1.8408e-13
5.38032e-13
3.99726e-11
-6.50078e-11
-5.68983e-11
6.34683e-13
-6.53017e-13
-5.96248e-13
1.00224e-10
-1.62446e-12
2.73518e-11
1.45265e-12
-5.23862e-11
7.78598e-11
3.74118e-11
1.43055e-11
1.15674e-11
-3.19528e-11
0
-3.29841e-11
-1.23703e-13
-7.7681e-14
-8.45097e-14
2.78547e-12
3.30634e-11
2.06038e-13
-2.93966e-12
3.68381e-11
-5.82629e-13
3.93394e-13
-2.50151e-14
-2.17643e-11
-6.62405e-12
4.64463e-13
-2.90964e-11
1.14978e-13
3.04078e-12
2.65136e-12
-9.29149e-13
3.08235e-11
3.11203e-14
2.17612e-11
-7.6902e-13
4.65418e-12
-1.15338e-11
-3.39677e-11
-6.07259e-12
3.34836e-12
-8.7655e-13
-2.81076e-11
-1.20806e-13
1.37336e-11
0
0
-1.21828e-11
5.85444e-13
1.46363e-13
-1.46785e-13
-1.86712e-11
-1.22405e-11
0
-1.53688e-11
-1.22444e-11
-1.3396e-12
2.96481e-13
1.48086e-13
-1.48081e-13
-4.89163e-12
-5.95344e-13
0
1.49223e-13
8.52361e-15
1.04383e-11
-1.34028e-12
2.81868e-11
4.5789e-14
9.18879e-13
-1.10332e-14
-6.23699e-14
-3.83333e-11
8.14836e-14
1.56005e-11
-2.89819e-11
2.23446e-12
-5.35675e-11
9.5194e-11
-3.96966e-11
3.96408e-11
1.69651e-11
5.09078e-11
-1.49964e-13
6.97746e-13
2.9517e-11
2.27566e-12
1.56112e-12
-2.70509e-13
-3.99847e-13
-4.64749e-11
8.70713e-13
-2.9148e-11
7.97729e-14
-6.51675e-13
4.57269e-11
-1.48841e-13
1.39638e-12
6.13583e-14
-1.94382e-11
3.83988e-13
-3.29504e-12
-1.10422e-12
-2.20711e-13
3.72687e-13
-5.92984e-13
-7.01212e-11
7.38953e-13
1.42459e-11
1.64303e-11
1.12131e-12
2.94606e-11
-1.3773e-11
1.49031e-11
-1.91948e-13
-2.2178e-12
-1.08417e-11
1.92876e-13
-2.7333e-13
-2.686e-12
-3.38894e-11
5.80323e-12
-2.51958e-12
0
-1.48084e-13
-5.03963e-12
7.44113e-12
0
-1.40303e-11
1.42922e-11
8.93367e-13
-5.9451e-13
-1.03854e-12
-5.33899e-12
4.44918e-13
6.97281e-12
-4.3991e-11
-2.97762e-13
-2.97756e-13
1.4271e-11
4.21434e-13
-3.59193e-12
-1.54854e-12
1.01659e-11
3.27976e-11
-2.95894e-11
1.7624e-12
-2.8121e-11
-3.43114e-13
1.34482e-11
-2.97143e-13
-3.27534e-11
1.52629e-11
5.56962e-12
-4.46407e-11
1.42131e-11
-3.59746e-11
-9.21302e-12
4.20603e-13
1.44371e-11
0
3.88943e-11
-9.90062e-12
-1.0369e-12
-1.799e-11
1.62602e-12
1.81123e-12
6.23871e-11
1.92951e-13
-1.39873e-11
1.18708e-12
1.49711e-11
1.37414e-12
1.39364e-12
-3.80224e-11
9.309e-13
8.94165e-12
-2.43128e-11
1.03712e-13
-1.41682e-11
-1.18756e-12
1.20699e-12
4.24216e-11
-1.02572e-12
6.66065e-12
-1.87869e-12
-2.33843e-11
-7.35654e-13
-2.51693e-13
1.51205e-13
-2.96549e-13
1.11687e-12
-4.29834e-11
9.95702e-13
2.75419e-11
4.13652e-13
6.16475e-11
-4.52103e-11
-4.04395e-13
2.5409e-11
-1.34249e-12
-3.97388e-11
2.26324e-11
-2.51059e-11
1.1074e-12
-7.8943e-13
1.26517e-10
4.51833e-11
1.02302e-13
-4.52431e-13
1.01506e-11
-3.76647e-13
2.7839e-13
3.63602e-11
-4.6167e-11
3.0202e-11
-3.18066e-11
7.56001e-15
-6.78336e-13
-2.53082e-11
-6.10328e-12
7.2801e-12
1.48327e-13
2.22432e-11
-1.48296e-13
2.07685e-11
5.94417e-13
0
-5.95625e-13
5.93864e-13
1.61736e-11
-1.48185e-13
-1.55432e-11
-2.32342e-11
0
-3.95224e-11
-1.48179e-11
3.11593e-12
-5.34476e-12
4.82742e-13
8.64748e-14
6.29803e-12
-4.79451e-13
8.18973e-12
-4.98031e-12
-1.12858e-11
-8.34627e-12
-1.64021e-11
1.04329e-13
3.10674e-14
-1.62497e-11
8.55304e-12
2.03886e-11
3.17176e-11
9.93094e-13
2.72265e-11
-3.6288e-13
-2.47085e-11
4.95852e-12
1.51131e-13
1.16474e-11
-2.34945e-12
2.93488e-13
-3.96873e-13
-1.33694e-12
7.981e-13
1.5297e-13
6.19553e-12
1.39477e-14
-6.28771e-14
1.45363e-11
-7.34971e-12
-2.95359e-13
2.19105e-11
-4.04045e-12
-1.19752e-11
1.88346e-13
-7.67949e-12
-1.51702e-11
1.64693e-11
4.30047e-12
1.47052e-12
0
4.36416e-12
1.33362e-13
3.01987e-13
3.55212e-11
-2.28032e-11
1.38489e-13
-1.77238e-13
-7.12845e-13
-2.67404e-11
2.94651e-13
-2.16199e-11
-5.63618e-12
-3.68614e-14
-3.50701e-11
7.44404e-12
8.93224e-13
-1.63603e-11
-1.65448e-11
2.72612e-11
-2.6961e-11
-2.69109e-11
9.93088e-12
-4.79746e-13
2.0339e-12
2.19266e-11
-9.84791e-14
1.22364e-13
-1.33838e-11
-3.17044e-11
4.17681e-12
2.41261e-11
2.2504e-12
1.84409e-13
4.91179e-12
-3.02588e-13
1.41281e-11
-1.48459e-13
2.96745e-13
1.06716e-11
0
1.65716e-11
4.43896e-13
-7.4002e-13
-1.62979e-11
0
0
-1.34865e-11
1.82199e-11
1.03614e-12
-1.47941e-13
0
-9.17102e-12
-1.18353e-12
1.31735e-11
0
0
-1.38302e-11
8.93171e-13
-1.55218e-11
-3.49488e-13
8.30587e-14
-8.92144e-12
-6.34885e-15
3.18281e-11
1.83401e-11
2.35312e-12
1.40208e-11
4.48578e-12
-1.61098e-13
-4.8719e-13
-3.43486e-12
1.78842e-13
1.03763e-12
1.65244e-11
2.61821e-13
1.65737e-13
1.43633e-11
-7.14125e-13
3.80834e-11
1.25829e-13
-9.6874e-14
-6.4192e-14
-1.76036e-13
-9.83135e-13
-1.95514e-11
-4.96096e-12
1.19052e-13
-4.02536e-11
-1.37828e-13
1.39747e-13
3.63174e-12
1.52109e-14
7.60959e-14
-1.74345e-11
9.89314e-14
-4.09776e-13
1.98452e-11
4.63308e-13
-2.2847e-11
1.42155e-11
-2.92487e-13
-1.94581e-13
6.65012e-13
-3.30613e-11
8.79805e-13
2.94474e-12
4.06278e-13
1.77093e-11
1.63967e-13
1.38169e-11
-3.75713e-13
-1.56913e-11
9.19307e-14
1.07806e-12
1.40816e-13
-1.33331e-11
-1.97427e-11
-3.9449e-13
2.44482e-13
-1.42759e-11
1.0301e-13
9.66944e-14
1.59756e-11
1.52681e-11
-5.01998e-13
4.69002e-13
-1.57139e-11
-1.9094e-11
-3.71094e-13
-1.36772e-11
8.80702e-14
1.52419e-11
-9.21294e-14
-1.1453e-13
-5.09729e-14
1.31097e-11
-1.5116e-11
-1.92552e-11
0
2.95826e-13
-2.95764e-13
-4.43633e-13
-1.64172e-11
1.47991e-13
1.48111e-13
1.482e-13
2.26526e-11
2.14619e-11
-4.43868e-13
1.7454e-11
-7.39513e-12
-5.916e-13
0
2.95897e-13
-1.46528e-11
1.33246e-11
4.13347e-13
-9.94111e-14
-5.65023e-14
1.72795e-11
-7.50655e-12
-9.13914e-14
-2.54453e-14
-1.18156e-13
-1.52609e-11
1.44267e-11
-2.25131e-11
-1.1915e-11
1.06878e-12
-4.17138e-14
-3.72776e-13
4.45382e-13
4.89255e-14
-5.94321e-13
-6.42324e-13
-1.33772e-11
-6.0524e-13
1.18567e-13
1.44335e-14
-4.26668e-14
8.56719e-14
-1.32082e-11
-2.12926e-14
1.44624e-13
7.71734e-14
-1.95376e-11
-5.97316e-13
-6.75062e-12
-1.59715e-11
3.86099e-14
6.61987e-13
-1.40364e-11
-7.51756e-14
-3.40379e-13
-1.33512e-13
-1.55245e-13
1.42152e-11
-1.37948e-13
-6.54706e-13
-3.64691e-13
2.76372e-13
1.31428e-11
1.65039e-11
1.4147e-11
-1.56371e-11
5.03948e-12
6.30932e-13
-2.80685e-12
1.47085e-11
-1.03502e-13
-5.51712e-14
1.42853e-11
-4.1852e-15
6.61778e-13
-8.37138e-15
3.20039e-13
-1.43678e-11
2.53126e-13
5.35605e-13
3.99701e-14
-1.5694e-11
5.23838e-14
-1.60398e-11
-1.42896e-11
1.54345e-11
-1.76623e-13
1.70461e-12
1.02587e-11
-1.3568e-11
3.57253e-15
8.87072e-13
1.91286e-11
1.45296e-11
-2.13903e-13
-2.82533e-14
-2.26493e-13
1.33241e-12
1.0064e-11
-1.39058e-11
5.9153e-13
1.62647e-11
1.92216e-11
1.40481e-11
1.47923e-13
-1.47988e-13
0
4.4393e-13
0
-7.1004e-12
2.95805e-13
0
1.47892e-11
-7.39494e-13
-1.96731e-11
1.47947e-13
0
1.65705e-11
5.55231e-13
-7.28928e-12
-6.69148e-13
-3.32655e-13
1.4711e-11
-3.35816e-13
-3.76665e-11
-4.45224e-14
1.76646e-13
1.333e-13
1.95833e-13
1.94753e-11
2.35238e-13
9.37176e-13
-4.73679e-14
-6.24502e-15
-5.0186e-13
5.61772e-14
2.54634e-14
-1.6241e-11
-1.01444e-12
-1.86101e-14
5.82591e-13
6.27071e-13
1.64215e-11
-1.42534e-13
1.75617e-11
-2.02746e-11
-1.85813e-11
-1.20668e-11
2.44375e-13
-3.39862e-11
-3.18823e-13
-9.35203e-13
4.90758e-13
4.30849e-13
-4.55448e-14
-2.40292e-13
2.11728e-14
1.63946e-11
3.67536e-13
-1.86519e-11
7.04214e-16
-3.42932e-13
-1.63646e-11
-9.93853e-14
1.73743e-13
1.03299e-12
1.82438e-11
1.1882e-11
-1.17005e-13
-5.6055e-12
-1.73808e-11
-4.02469e-13
-6.60974e-13
-9.96264e-14
2.13981e-13
-2.66897e-13
1.09383e-13
-9.95557e-13
-1.84294e-13
1.83901e-11
5.0987e-13
-5.24107e-14
-1.85091e-13
5.03814e-14
-1.78862e-11
1.90985e-11
0
-1.81457e-13
1.14084e-13
1.98491e-11
1.7208e-11
1.86409e-13
1.34444e-14
6.69163e-14
-2.17773e-13
5.91572e-13
-1.88036e-13
-1.50929e-11
-1.4794e-13
1.47902e-13
1.47874e-13
1.4786e-13
-4.43571e-13
2.95733e-13
1.80426e-11
0
-2.95913e-13
-5.91721e-13
1.52354e-11
0
-2.07047e-12
0
0
1.47884e-13
-1.47893e-13
-1.47911e-13
0
-5.91666e-13
2.97289e-11
1.47891e-13
0
1.9077e-11
5.91526e-13
1.71539e-11
-1.3309e-12
1.47892e-13
1.80443e-11
0
5.9156e-13
-1.49363e-11
2.07045e-12
1.47898e-13
7.39469e-13
1.47879e-13
-1.7005e-11
1.183e-11
1.47886e-13
0
-1.43446e-11
1.47889e-13
0
-1.96743e-11
-4.43762e-13
-1.71556e-11
7.39339e-13
1.47861e-13
-1.81877e-11
0
-2.95763e-13
1.47896e-11
-3.84607e-12
-1.47952e-13
-4.43834e-13
1.77489e-12
3.23837e-11
-1.18284e-11
0
2.95759e-13
-7.39385e-13
-2.01133e-11
-1.4792e-12
-1.62738e-11
1.47937e-13
1.80438e-11
0
-1.47849e-13
1.47854e-13
1.47881e-13
-1.55266e-11
-1.56748e-11
1.03524e-12
0
-1.47898e-13
-1.33084e-12
-1.58198e-11
0
0
0
-1.62666e-12
2.04055e-11
1.47864e-12
1.75961e-11
-1.47861e-13
-7.39231e-13
0
2.12907e-11
1.64135e-11
-4.43717e-13
1.61199e-11
1.56744e-11
2.51361e-12
-1.47851e-13