/*--------------------------------*- C++ -*----------------------------------*\
  =========                 |
  \\      /  F ield         | OpenFOAM: The Open Source CFD Toolbox
   \\    /   O peration     | Website:  https://openfoam.org
    \\  /    A nd           | Version:  10
     \\/     M anipulation  |
\*---------------------------------------------------------------------------*/
FoamFile
{
    format      ascii;
    class       volScalarField;
    location    "1.2";
    object      gradTy;
}
// * * * * * * * * * * * * * * * * * * * * * * * * * * * * * * * * * * * * * //

dimensions      [0 -1 0 1 0 0 0];

internalField   nonuniform List<scalar> 
47104
(
4.37803e-13
4.37779e-13
2.88613e-13
-9.20384e-15
-4.45675e-13
2.97116e-13
3.01789e-11
3.07238e-13
-2.88822e-13
-2.29695e-11
6.04907e-13
4.36832e-13
7.01854e-13
5.08321e-12
-2.60679e-13
-5.6433e-13
-3.23888e-13
-1.71772e-13
1.28686e-13
4.54793e-13
2.09948e-11
6.87992e-13
2.10905e-14
2.0725e-13
5.22688e-13
1.40918e-13
-3.0131e-11
-1.04742e-12
-4.27947e-14
2.28474e-11
-6.42082e-15
3.07703e-13
-9.81717e-14
-4.91669e-12
5.0207e-13
3.79954e-13
4.8656e-14
1.30722e-13
-2.66676e-13
-3.98917e-13
-2.1279e-11
-7.02995e-13
1.08455e-12
-1.17306e-13
1.16798e-12
1.43009e-13
4.38218e-12
3.83547e-13
2.31911e-11
-3.55979e-13
-3.67762e-13
2.07017e-11
-3.46931e-13
2.46253e-15
-7.23243e-14
-2.94533e-13
1.86463e-14
1.27164e-13
2.72726e-12
1.2091e-13
8.01899e-14
2.58036e-13
-8.49079e-13
-5.96176e-13
-3.11003e-11
2.44905e-14
-4.53008e-12
-6.5423e-14
-2.34047e-11
5.29629e-13
1.98883e-13
-2.03862e-11
6.87143e-15
8.43171e-13
5.22298e-13
2.51101e-13
-1.00785e-13
2.35027e-11
-2.90841e-12
2.43818e-11
-2.16963e-14
-2.44458e-13
3.93459e-13
1.60857e-13
3.07947e-11
-2.26732e-11
-1.58003e-14
-7.05731e-13
-2.13696e-11
-7.18228e-13
9.51284e-15
1.39735e-13
4.37336e-13
-7.34223e-13
1.48533e-13
-2.30231e-11
9.19447e-15
-2.39847e-11
-2.13252e-11
-2.41437e-11
-8.91003e-14
0
-3.82287e-11
-1.67134e-11
1.49178e-13
-1.49177e-13
3.14867e-11
2.03085e-11
-2.46418e-11
6.01163e-14
-1.21128e-11
-6.7802e-14
2.10257e-11
9.64614e-12
6.84314e-12
-7.81537e-12
-9.68347e-12
-6.77155e-12
1.37554e-13
-4.41381e-13
-3.47331e-13
-1.14037e-13
3.59953e-11
2.59539e-11
-4.89917e-13
-2.49477e-13
-4.07502e-11
-2.73519e-11
2.72118e-12
-2.33624e-11
1.26798e-11
4.68952e-14
2.71063e-13
-4.80254e-11
1.28057e-12
6.34363e-11
-9.10005e-15
-5.43204e-13
1.60489e-13
-2.50997e-11
-2.09946e-11
-1.0871e-13
5.52681e-11
4.90288e-11
-6.80519e-13
-6.28462e-11
1.09935e-12
2.29084e-13
-5.53287e-12
1.90622e-12
-2.15927e-11
3.00534e-11
-5.44178e-11
-1.04917e-13
7.62024e-13
4.31139e-14
-6.01315e-13
-4.07809e-13
-2.45381e-11
4.71585e-11
2.10966e-11
-1.40454e-13
-4.56305e-11
-4.18507e-11
4.50728e-11
1.575e-13
5.28566e-13
3.14203e-13
2.72296e-11
2.14917e-11
2.15489e-11
-8.53848e-12
4.54503e-11
4.17706e-11
-4.77034e-11
-1.06228e-12
1.8806e-13
-6.00728e-14
2.44372e-11
-4.35066e-11
-1.89758e-13
-3.67059e-13
3.02993e-12
-1.54388e-11
-1.12168e-13
-2.84539e-11
-2.93466e-11
-3.36682e-13
-5.94716e-14
-6.94217e-14
0
-2.15028e-11
-9.7039e-12
-2.9838e-13
4.47445e-13
-3.26646e-11
-2.14853e-11
1.19447e-12
2.98674e-13
2.10387e-11
2.09334e-13
1.25396e-11
-2.92314e-11
-2.98008e-11
-9.98536e-12
-4.47107e-13
1.04303e-12
-1.49134e-13
1.0598e-11
6.01426e-14
-4.92409e-12
-5.44589e-11
-5.42594e-11
-4.10604e-11
3.84053e-12
6.45519e-13
-1.93597e-12
-3.44167e-13
1.74851e-13
1.05717e-13
-2.28388e-13
2.88611e-11
-7.90367e-12
1.28034e-09
2.11839e-09
2.1066e-09
2.11664e-09
-1.76434e-10
-2.75707e-13
-2.37841e-13
5.22895e-12
-9.3534e-13
4.36338e-12
-3.04053e-07
-2.64837e-07
-2.68037e-07
-2.23764e-07
-3.47039e-08
-4.25936e-13
-6.19025e-14
-2.64721e-13
5.93017e-13
-5.29244e-11
4.01163e-09
2.18075e-07
2.31016e-07
1.78314e-07
-7.33351e-09
-1.17598e-13
3.62899e-15
-3.54945e-14
2.38697e-13
5.33183e-11
-7.35256e-10
-4.89911e-08
-5.23028e-08
-3.96804e-08
1.74996e-09
2.90625e-13
7.03089e-14
4.6866e-13
-1.8179e-12
5.49195e-12
-1.67035e-08
-6.27959e-07
-6.56422e-07
-5.28478e-07
2.01414e-08
-7.36672e-11
-2.97838e-13
-6.55933e-14
1.45942e-12
-8.88737e-13
8.19583e-08
1.42365e-07
1.45989e-07
1.30385e-07
-4.28512e-09
1.26319e-10
1.67203e-13
4.36654e-14
-2.98428e-13
1.03239e-13
-4.42724e-11
-2.87777e-13
-3.51694e-13
4.00998e-14
4.17046e-11
-5.25187e-11
6.59631e-14
1.49184e-13
-2.92501e-11
3.14565e-11
-1.63856e-11
1.63905e-11
-9.23874e-12
-8.93881e-13
2.22178e-11
7.76145e-12
-2.98375e-13
-2.29228e-11
-2.97288e-13
8.85997e-13
-5.64831e-11
-5.59639e-11
1.27458e-11
-4.53345e-11
-3.69123e-12
-1.45641e-11
-2.63417e-11
-2.31534e-11
-1.56083e-13
2.2131e-10
6.73309e-09
4.74158e-09
4.61218e-09
5.36461e-09
9.005e-09
-2.84125e-11
-3.39814e-13
5.13257e-14
-5.9202e-13
1.24621e-08
0.000196543
0.000203694
0.000204793
0.000202784
0.000196925
8.69084e-09
3.571e-12
6.77938e-13
-3.38811e-11
-7.47219e-07
-1.208
-1.92661
-1.93743
-1.91061
0.290791
6.61906e-08
9.73366e-14
-2.36957e-11
-6.64962e-12
-2.12518e-09
-0.0102486
-0.034416
-0.0358703
-0.0327081
-0.0344508
3.96403e-09
2.29665e-11
-2.74277e-13
3.19087e-12
-3.48352e-10
0.000653395
0.0020412
0.00214188
0.00192602
-0.0370944
-9.08765e-10
4.06288e-14
4.47164e-11
1.49119e-11
2.26187e-08
0.0276432
0.0976762
0.10028
0.0940138
-0.0389481
-1.5769e-08
-2.03433e-13
-3.84952e-13
6.28312e-11
1.98402e-06
1.11116
1.39666
1.40186
1.38489
-0.328518
-1.38061e-07
-1.55876e-13
-2.07925e-11
2.64375e-13
-1.09648e-07
1.26553e-05
1.16983e-05
1.16629e-05
1.18509e-05
9.37494e-06
-2.07867e-10
3.11358e-14
-1.48842e-13
-8.91552e-13
4.01506e-11
5.80826e-11
7.20676e-11
5.00989e-11
4.92912e-11
-1.91943e-12
3.52235e-11
2.977e-13
-2.60164e-11
4.45245e-13
-3.0859e-12
-2.50103e-10
-3.04185e-10
-2.99862e-10
-2.29544e-10
2.32192e-11
-4.45151e-13
-2.82407e-12
-2.9913e-11
6.51133e-13
-5.7636e-10
-8.66865e-07
-1.37738e-06
-1.34403e-06
-1.44416e-06
6.22791e-08
-6.74007e-14
-3.22052e-11
2.55514e-11
3.95402e-11
7.31752e-07
-1.41974
-1.71812
-1.72135
-1.7137
-0.0110369
1.11578e-07
2.55675e-12
3.07943e-11
1.151e-08
0.0371347
3.9751e-05
3.40432e-11
4.70001e-13
3.81349e-09
0.00101789
2.71955e-06
3.46973e-11
-6.68466e-13
-7.31442e-10
0.00023157
-4.52966e-07
-1.30533e-12
-1.97605e-12
-9.29698e-09
-0.00185751
-1.18127e-05
-3.59417e-11
2.46336e-13
2.43742e-09
0.00190893
4.95233e-06
3.19715e-13
-2.48328e-13
-4.71269e-11
-2.15494e-07
0.00223069
0.00267088
0.002677
0.00264449
-0.000115342
6.29201e-10
5.78652e-14
-1.4865e-13
8.01133e-12
-9.98933e-12
2.36995e-10
2.77115e-10
3.00999e-10
3.03716e-10
-2.52761e-11
3.68033e-11
-1.48668e-13
-2.09676e-11
-2.9712e-13
1.05874e-11
-2.1857e-10
-2.97749e-10
-3.1351e-10
-2.33757e-10
3.69239e-11
1.73806e-11
0
-1.26202e-13
9.57735e-12
-8.8295e-10
-7.71791e-07
-1.445e-06
-1.40235e-06
-1.52884e-06
6.70916e-08
-1.42556e-11
2.34981e-11
2.05953e-11
4.48299e-11
4.74645e-07
-1.46062
-1.79396
-1.79848
-1.78759
-0.00986251
1.18521e-07
-2.06198e-11
1.89018e-12
1.26669e-08
0.0467381
4.69378e-05
-2.16429e-11
8.18348e-13
5.18323e-09
0.00129996
3.71492e-06
2.23689e-11
-8.8811e-13
-8.81045e-10
0.000166593
-6.05941e-07
2.18891e-11
2.05543e-11
-1.25982e-08
-0.00493512
-1.52583e-05
-5.80464e-12
9.53785e-12
9.36726e-10
-0.00342445
5.58336e-06
-2.23163e-11
-2.29083e-11
4.86286e-13
-1.68039e-07
0.00228911
0.00285436
0.00286336
0.00278196
-2.85755e-05
9.75337e-10
3.14319e-12
-9.66437e-12
0
-1.30835e-11
2.54644e-10
3.01032e-10
2.98612e-10
2.32974e-10
4.41173e-12
4.91695e-11
-2.9742e-13
-1.04154e-12
-8.92132e-12
1.17739e-11
-2.11738e-10
-2.86479e-10
-2.81165e-10
-2.21999e-10
3.09189e-12
7.28549e-12
2.33564e-11
-3.43437e-11
-1.21813e-11
-9.81336e-10
-7.33278e-07
-1.39585e-06
-1.35054e-06
-1.48716e-06
6.73417e-08
5.12745e-14
-8.40447e-14
-6.31308e-13
8.95686e-11
4.84512e-07
-1.46249
-1.79739
-1.80208
-1.79083
-0.00989521
1.19258e-07
-2.38024e-11
3.48114e-11
1.24459e-08
0.0467502
4.74585e-05
-2.13424e-11
-3.10168e-11
5.61605e-09
0.0013333
3.86061e-06
6.53941e-13
-4.26481e-13
-8.00888e-10
0.000130795
-6.31619e-07
2.22595e-11
3.05125e-11
-1.2866e-08
-0.00257929
-1.55483e-05
2.85029e-11
-2.12108e-13
1.3777e-09
0.00199203
5.59659e-06
-3.74988e-13
-1.56758e-13
-5.41638e-11
-1.6869e-07
0.00229502
0.00286501
0.00287481
0.00282235
-0.000126664
9.96756e-10
-3.00221e-11
1.48765e-13
-2.82389e-11
7.35675e-12
1.95746e-10
3.1373e-10
3.13754e-10
2.18865e-10
-2.23703e-11
8.77206e-12
-1.48797e-13
0
4.7605e-11
3.09247e-12
-2.29739e-10
-2.99972e-10
-3.37715e-10
-1.74922e-10
1.31115e-11
-7.14077e-12
-5.9536e-13
7.45202e-14
5.88029e-11
-9.56292e-10
-7.28828e-07
-1.39303e-06
-1.34764e-06
-1.48522e-06
6.74462e-08
2.90473e-12
-5.40844e-13
-3.78041e-13
5.95304e-12
6.00982e-07
-1.4625
-1.79768
-1.8024
-1.7911
-0.00989446
1.19251e-07
2.21488e-11
1.78428e-12
1.3582e-08
-0.00589102
4.74748e-05
2.02435e-12
1.37644e-12
6.23319e-09
0.00213037
3.86396e-06
-2.14839e-11
-2.7898e-11
-6.6291e-10
0.000141541
-6.32271e-07
-7.41174e-13
-1.42624e-12
-1.28116e-08
-0.00250593
-1.55666e-05
-1.9456e-12
2.7996e-11
1.44624e-09
0.00199231
5.59887e-06
3.50902e-13
-6.18768e-14
-4.31776e-11
-1.76848e-07
0.00229593
0.00286603
0.0028757
0.00281772
-0.000124982
9.44658e-10
1.34943e-13
1.48836e-13
1.6655e-11
-4.19578e-11
2.35511e-10
3.16116e-10
3.01267e-10
2.48953e-10
-5.15447e-12
9.66962e-12
1.4887e-13
-4.46712e-13
-1.35426e-11
5.59957e-12
-2.27546e-10
-2.85819e-10
-3.10442e-10
-2.43335e-10
-2.6533e-12
7.29223e-12
-2.97795e-13
-5.677e-13
-3.89947e-12
-9.43366e-10
-7.55008e-07
-1.42862e-06
-1.38559e-06
-1.51472e-06
6.73457e-08
-4.82913e-13
-2.57453e-13
1.33563e-13
2.10466e-11
6.3614e-07
-1.462
-1.79634
-1.80095
-1.78984
-0.00986556
1.18858e-07
-1.57107e-13
2.07052e-12
1.70719e-08
-0.00923794
4.69796e-05
1.61219e-12
2.3445e-11
6.13669e-09
0.00204564
3.72278e-06
2.32903e-11
-1.00963e-12
-7.09855e-10
0.000161707
-6.03884e-07
-1.2468e-12
-2.50174e-11
-1.25624e-08
-0.00246214
-1.52535e-05
-2.46526e-11
4.81625e-13
1.36231e-09
0.00198888
5.5998e-06
9.53328e-13
8.2806e-14
7.69576e-11
-1.86035e-07
0.00229412
0.00285937
0.00286843
0.00278781
-2.84678e-05
9.73711e-10
-4.85014e-13
1.48892e-13
-7.58682e-12
-1.76774e-11
2.36517e-10
2.89545e-10
2.96811e-10
2.45612e-10
7.36815e-13
0
-7.44626e-13
-3.02324e-11
3.72134e-12
3.24472e-12
2.91465e-12
-3.71607e-11
-3.41133e-11
-3.41067e-11
-4.27773e-12
-4.31694e-11
1.48938e-13
-2.81542e-11
6.848e-13
-8.03271e-10
-4.98534e-07
-5.98254e-07
-5.59126e-07
-7.08374e-07
5.74718e-08
-9.78994e-11
2.20102e-11
5.69642e-12
2.94645e-11
5.14759e-07
-1.43808
-1.74427
-1.74786
-1.73931
-0.0110066
1.05306e-07
2.88174e-11
2.80591e-11
7.68771e-09
0.0393041
3.32424e-05
-2.15634e-11
1.1335e-12
1.98389e-09
0.00105823
2.32271e-06
-2.88613e-11
3.74165e-13
-2.61772e-10
0.000143714
-3.76032e-07
2.00422e-13
4.44729e-11
-4.94989e-09
-0.00184005
-9.41626e-06
2.83053e-12
-4.3972e-13
1.05468e-09
0.00198578
4.22529e-06
2.94363e-13
-2.25079e-11
-5.90198e-12
-2.0388e-07
0.00199682
0.00225548
0.00225993
0.00224526
-0.000109338
7.86383e-10
-2.85961e-12
0
1.04163e-11
-1.6218e-12
6.77485e-11
2.80115e-11
3.03358e-11
-1.10749e-11
-5.04357e-11
1.48859e-13
-4.46885e-13
0
5.95421e-13
-7.52322e-12
-2.85691e-11
8.27455e-12
-2.55488e-11
1.16589e-11
-7.81714e-12
-1.48874e-13
-2.68119e-12
3.10986e-14
-3.60994e-13
2.09061e-11
3.68015e-09
3.75033e-09
3.68037e-09
3.70041e-09
2.61816e-09
-3.01709e-11
2.13665e-14
6.56681e-14
8.92906e-13
-5.12509e-07
-0.00103302
-0.00107107
-0.00107236
-0.00107004
-0.000969318
3.17975e-09
2.56632e-12
1.09307e-13
-5.28629e-11
7.65089e-06
-3.04621e-08
2.60207e-11
1.61789e-13
-5.47696e-11
1.59319e-07
-2.25253e-09
-7.94469e-14
-2.18524e-11
4.54401e-11
4.37587e-08
2.98653e-10
-5.18726e-11
3.3973e-13
2.22539e-11
-4.28351e-07
8.10133e-09
2.35941e-13
2.13941e-11
4.50978e-11
-3.20693e-05
5.0585e-08
2.60331e-11
-3.2888e-13
4.64465e-13
8.67563e-08
-3.23652e-06
-3.39339e-06
-3.40426e-06
-3.3565e-06
-1.80876e-06
3.26929e-11
-1.49917e-13
0
-7.73826e-12
-5.89776e-13
2.7538e-11
-3.48345e-11
8.85465e-12
1.36999e-11
8.70179e-12
-2.38187e-12
1.48971e-13
-5.8077e-12
-2.06876e-11
2.19647e-11
2.90917e-13
1.3027e-11
-8.53945e-12
-2.41389e-11
2.94762e-13
-1.87564e-11
1.4895e-13
-3.15121e-11
-7.12997e-11
-1.17035e-12
1.68466e-13
4.24972e-11
-1.8425e-13
2.01375e-11
3.05528e-13
1.79471e-11
-2.33962e-11
-2.57661e-11
4.46519e-11
-2.24567e-11
9.30254e-11
-4.36853e-11
-1.58728e-12
-2.92524e-13
5.43499e-11
6.03545e-13
-4.31673e-13
-2.44405e-13
6.02149e-11
2.48889e-11
8.16792e-13
2.29488e-11
-1.42497e-13
-6.16863e-11
-1.53722e-12
-4.19287e-11
7.77308e-14
2.6919e-13
9.3108e-14
2.42551e-13
4.25295e-11
-2.13972e-11
-2.24261e-11
4.92508e-11
3.33826e-12
-6.75478e-12
-3.39723e-11
1.92082e-13
-4.85883e-11
-8.61494e-11
6.47263e-11
2.1827e-11
2.22396e-11
2.88377e-13
-4.35927e-11
-1.9512e-11
-3.24723e-11
1.61181e-11
-7.28993e-12
-3.12651e-11
-5.9017e-11
3.4257e-11
-5.95753e-13
-3.48182e-11
-4.80353e-11
-7.99723e-12
1.07094e-11
9.11907e-12
-2.90952e-13
-5.11507e-11
-1.94986e-11
1.48958e-13
-1.48902e-13
3.58629e-11
-3.83072e-11
7.26523e-13
3.46918e-11
-2.55839e-11
1.27838e-11
-4.41957e-13
7.73976e-12
-2.383e-11
-1.25678e-13
1.88425e-11
-3.03793e-11
-2.98077e-13
3.38707e-11
2.09345e-13
1.33463e-11
-4.60212e-11
1.89002e-12
-3.80199e-11
2.23237e-13
1.19158e-12
3.36234e-13
-1.39957e-12
2.55572e-11
1.82152e-12
-2.88313e-13
3.77296e-11
-2.11366e-12
2.33242e-11
3.40855e-11
1.37874e-12
-2.90549e-12
-4.48318e-11
3.73044e-11
5.14509e-14
-2.11036e-13
5.89732e-13
9.91159e-11
-3.57086e-13
-2.5136e-12
8.09648e-15
8.40096e-11
-5.37183e-11
-3.03009e-11
-9.48434e-13
-1.13239e-12
1.16822e-11
-4.4363e-13
1.08068e-12
-3.95087e-11
-8.8279e-13
9.8603e-11
-3.10435e-11
4.39407e-12
1.11427e-12
3.52389e-13
1.29405e-10
1.12433e-11
-4.60585e-11
-6.68381e-11
-1.49598e-11
1.14522e-11
1.78555e-11
1.62783e-13
7.14829e-12
2.97563e-13
-1.64965e-11
1.59788e-12
8.09354e-12
1.37319e-11
-8.71871e-13
4.43476e-11
-8.92898e-13
2.59157e-11
0
5.95208e-13
9.28139e-12
2.60052e-11
4.33547e-13
-1.44507e-13
-4.56064e-11
2.90186e-11
1.04181e-12
-4.46793e-13
5.58469e-13
7.79856e-13
-2.68727e-12
-8.48138e-14
-5.55945e-11
-1.33822e-14
-9.47181e-12
2.91634e-11
-1.93663e-12
-1.83384e-13
-1.65304e-11
0
-3.45068e-11
2.26958e-15
7.63265e-11
9.07563e-11
-1.98197e-12
7.20131e-13
0
-3.25015e-11
-9.8856e-14
4.79754e-13
1.45295e-11
1.40836e-13
-2.45814e-11
1.62401e-11
-4.8591e-11
1.30962e-10
-4.2417e-13
3.18034e-11
1.04428e-13
4.65037e-11
5.07893e-13
1.49839e-13
2.44686e-11
-2.86158e-11
2.19857e-12
8.46239e-13
-2.82635e-13
6.56514e-13
-8.22986e-14
8.83221e-13
-8.87393e-11
7.29332e-13
-3.01025e-11
2.91375e-11
3.69579e-15
-1.69871e-11
4.22996e-11
-5.49521e-12
7.34117e-13
2.91805e-13
6.71196e-13
-4.37241e-13
-8.78093e-13
1.4891e-13
-1.48773e-13
4.47694e-11
3.36922e-11
-4.07462e-11
1.05483e-11
-9.00501e-12
-2.94576e-13
-1.488e-13
2.93395e-11
4.46681e-13
-7.73796e-12
0
-2.90671e-13
-2.89151e-13
-8.96306e-12
2.46983e-12
-1.0312e-12
2.54495e-11
6.10622e-12
4.36253e-13
6.09361e-13
2.00483e-11
5.14424e-11
-2.6393e-13
1.8182e-11
9.13314e-13
1.37918e-12
1.3872e-11
-1.54872e-11
2.91089e-11
2.97772e-13
-1.0061e-10
-6.89189e-11
-1.08352e-10
2.82778e-13
-3.84303e-12
-9.21912e-11
5.67676e-11
-2.2266e-13
2.1932e-11
5.17428e-13
-1.00528e-10
-1.2326e-10
2.18239e-11
-2.89213e-11
4.029e-11
-2.94938e-12
6.77265e-11
-5.49836e-14
-2.09927e-11
8.00168e-12
9.89644e-11
9.20028e-13
-1.18743e-14
-1.1751e-13
-4.86449e-11
-3.06912e-13
-9.98363e-13
2.27056e-14
4.37472e-14
-1.03326e-12
7.55453e-13
-4.22721e-11
-1.89324e-13
-7.69707e-14
-8.55776e-13
-5.10811e-11
-1.75156e-11
-3.20121e-11
-5.87161e-13
-5.31017e-11
-3.27215e-11
4.4325e-11
-2.99132e-11
-1.4891e-13
-4.46322e-13
7.95328e-12
9.58745e-12
8.67279e-12
0
8.86139e-12
-4.41876e-13
-2.82724e-12
-2.9489e-11
0
0
-2.94827e-13
2.91028e-13
7.24158e-12
-7.24114e-12
1.4547e-13
9.43237e-12
7.44199e-12
1.48946e-13
-5.08477e-15
5.67092e-13
2.22032e-11
-5.0998e-11
-1.51062e-11
-8.92521e-13
-8.17122e-14
1.06847e-12
5.37035e-11
-8.21086e-14
-2.35636e-11
4.04501e-13
1.66634e-12
-3.65645e-11
1.948e-13
-3.67208e-11
-2.59258e-13
-2.34681e-11
-5.21975e-11
-2.61031e-11
-5.86869e-13
-5.9868e-14
-2.46298e-10
3.51613e-13
-1.57391e-13
2.3571e-11
-4.07025e-13
-1.01381e-10
-2.47927e-13
2.217e-11
2.37181e-13
-2.5116e-13
-1.32516e-13
7.20731e-14
9.89926e-15
-2.62292e-11
1.9575e-12
-6.83467e-13
-3.41524e-14
3.99621e-12
2.33787e-13
9.26903e-13
3.56796e-12
-8.13099e-11
-2.64811e-13
2.61962e-11
-2.02886e-13
2.84429e-11
-7.98583e-13
-3.80397e-11
2.04478e-11
1.43534e-11
1.31665e-12
8.43008e-11
-3.10197e-11
1.48925e-13
1.48788e-12
6.77812e-12
5.81811e-13
-2.12861e-11
-3.15673e-11
7.27251e-13
8.25187e-12
-3.57168e-12
-3.11308e-11
-2.59143e-11
2.97705e-13
-2.95036e-13
0
0
-6.82605e-12
2.91569e-13
1.47512e-13
-3.45418e-11
2.97947e-13
-2.94382e-12
2.51014e-14
1.98143e-13
4.1011e-13
-3.80113e-13
-1.16005e-12
-2.33813e-12
-5.49265e-13
1.84889e-11
-1.66955e-13
2.59493e-11
8.92472e-13
-1.22069e-10
-3.38643e-11
2.27004e-11
1.93746e-12
4.07105e-12
-4.17022e-11
-7.72957e-11
-4.73315e-13
2.08627e-12
5.13058e-13
-1.21489e-12
2.04406e-11
-3.3882e-14
-5.14956e-13
-5.81907e-11
-4.10308e-13
5.28125e-13
4.54168e-13
6.38801e-13
5.79038e-11
-9.65108e-11
-8.86449e-14
2.10032e-13
4.61033e-13
4.48408e-13
-3.75836e-14
5.90759e-11
-4.37023e-13
6.65868e-13
4.98212e-13
2.66405e-13
-5.94617e-11
5.58865e-14
-1.57922e-13
2.24552e-13
-1.20691e-12
4.23555e-12
-5.9696e-12
1.78666e-11
-1.76188e-12
1.7895e-11
1.81891e-13
-3.61781e-14
-5.9584e-13
4.40567e-11
1.62235e-12
-2.65303e-11
-7.98681e-12
0
7.28793e-12
2.1237e-11
1.16118e-11
-2.97966e-13
2.32367e-11
1.48879e-13
2.95043e-12
-1.45701e-13
1.08801e-11
-7.83353e-12
-1.45683e-13
5.60537e-12
-7.44535e-12
4.32059e-12
-9.28813e-14
5.29552e-13
-5.12313e-11
6.63547e-11
2.54293e-13
2.55071e-13
2.13357e-13
-5.71731e-11
-1.68722e-13
4.83256e-12
1.0476e-11
2.97807e-13
7.7247e-11
-4.88859e-11
-6.03251e-11
5.93626e-11
-3.12468e-12
8.61056e-11
4.37637e-11
4.54526e-13
-5.22802e-13
4.1436e-11
-2.57898e-12
5.11159e-13
-2.68406e-13
-3.415e-11
-3.97145e-11
-2.69042e-12
-4.39547e-11
3.5478e-11
8.30134e-14
-5.13691e-14
8.56542e-11
-7.54394e-13
-7.35015e-13
-1.40848e-13
-1.88638e-13
8.66018e-14
-2.92543e-13
-3.52613e-11
4.66452e-13
-5.89111e-13
7.7575e-13
8.78653e-13
8.05991e-13
2.06749e-13
3.37337e-13
3.93407e-12
-1.89652e-11
2.01957e-11
-2.90898e-11
1.45379e-11
5.12497e-13
4.33831e-13
4.72431e-14
0
-2.4563e-11
-2.66923e-11
8.44763e-12
-7.25208e-13
0
-7.57352e-12
1.47472e-13
1.48896e-12
-1.49003e-13
3.78334e-11
6.99614e-12
-8.4029e-12
-2.87938e-11
-2.02563e-11
-1.82308e-11
2.67575e-11
-4.93838e-11
6.40164e-12
0
1.06824e-13
-7.29237e-13
-1.07179e-12
1.59517e-11
1.69094e-11
7.9194e-11
1.2852e-11
4.11025e-11
1.89748e-11
7.1773e-13
-3.77676e-11
8.9366e-13
-8.85359e-14
-9.56922e-13
2.87721e-12
-8.22826e-11
-3.1157e-12
-5.70936e-11
-3.01964e-13
6.50433e-14
-5.39433e-13
3.83763e-13
-1.33214e-11
5.14908e-12
-9.75813e-13
-2.55408e-11
2.73739e-13
-3.68269e-13
-5.98912e-11
5.15842e-12
5.18264e-13
-3.33585e-13
-2.13491e-12
5.60834e-11
-3.22681e-13
6.33386e-13
-2.5582e-13
-7.54923e-13
1.44019e-13
-4.01657e-11
1.26975e-13
7.51556e-13
9.88774e-14
-8.48561e-12
-2.92228e-11
2.47058e-11
-5.02126e-11
2.03237e-11
2.85389e-11
1.43391e-11
-2.04484e-11
-1.34072e-11
5.10291e-11
1.00862e-11
3.59535e-11
1.48969e-13
8.48366e-12
-8.69394e-12
-4.89871e-11
0
1.7504e-11
-7.99494e-12
-1.59151e-11
0
2.99487e-11
1.48964e-13
1.48847e-13
-3.09463e-11
3.80749e-11
1.44573e-13
1.25782e-11
-7.12151e-12
2.63808e-11
7.14581e-12
4.46931e-13
1.34878e-13
-1.9236e-14
-2.96666e-11
6.85726e-11
2.91445e-13
2.78887e-11
6.54967e-13
-3.9786e-11
4.42208e-11
2.30854e-11
-1.07343e-13
5.95523e-13
-3.99915e-11
-5.37606e-11
1.86745e-12
-9.43181e-11
4.4201e-11
1.27638e-10
-4.25923e-11
-1.38975e-13
1.45879e-13
-3.60102e-13
-1.73963e-12
3.74765e-13
-2.29466e-11
-1.64896e-13
-4.5887e-13
8.25709e-11
-3.75223e-11
8.78062e-14
-2.71968e-11
8.54293e-13
1.28639e-10
3.79084e-11
-3.33092e-11
2.92977e-13
-2.13844e-13
2.18892e-12
-4.84347e-13
-2.07091e-11
2.75193e-11
3.93815e-13
1.67261e-12
-1.11149e-12
3.39656e-11
-1.14005e-13
8.1649e-13
-5.8149e-11
-3.70685e-11
1.4065e-11
3.66976e-13
-3.10741e-11
8.98649e-13
-7.57841e-13
2.09909e-11
0
-8.92979e-13
2.09199e-11
1.00244e-11
4.75568e-11
-2.74644e-12
1.43828e-11
4.02205e-11
8.4852e-12
-1.49011e-13
-3.57652e-12
-8.33836e-12
9.28651e-12
1.45375e-13
1.44649e-13
-4.07931e-11
2.90812e-13
1.04676e-11
3.72289e-12
3.41268e-11
2.15955e-11
-2.78881e-13
-1.86471e-11
-3.36864e-13
-6.33555e-12
-1.44758e-11
2.41001e-12
-2.21007e-12
5.07128e-11
1.01188e-13
5.02238e-11
5.95534e-13
-1.81883e-12
-1.99312e-12
4.72354e-12
-9.47303e-11
2.31029e-11
-5.04001e-12
-1.03905e-10
-3.31921e-11
3.36905e-13
4.05396e-13
0
5.25888e-11
1.75303e-13
-2.43199e-11
7.28252e-13
5.89879e-13
-2.32588e-13
2.02573e-11
-2.82535e-13
-7.85911e-13
5.77452e-12
2.53301e-13
-1.79416e-13
2.55053e-13
5.53689e-14
8.99791e-11
-1.14659e-12
6.94923e-12
3.37791e-13
-7.12973e-12
1.23654e-12
2.34184e-12
4.00266e-11
-6.74728e-14
6.52582e-11
-7.02614e-12
1.84626e-11
2.30775e-11
-4.93267e-11
-3.50155e-11
-1.5288e-11
-1.8942e-13
-2.79715e-11
0
-2.21821e-11
-6.18986e-12
-1.06107e-11
3.45665e-11
1.53307e-11
1.88953e-12
-1.47378e-13
-3.79715e-11
-4.05459e-11
-1.49135e-13
-1.16246e-11
8.7095e-12
7.2858e-13
-7.54341e-12
7.25373e-12
-1.45758e-13
8.85925e-12
1.49043e-13
2.46067e-11
2.25736e-11
-6.465e-12
-1.88574e-13
1.58669e-13
-5.86564e-13
5.41928e-13
-8.86462e-13
-3.44251e-11
-1.30084e-13
2.45765e-11
-7.00656e-14
6.13063e-11
-2.16379e-12
-2.87797e-12
-7.1117e-14
5.29667e-11
1.11364e-12
1.68285e-11
2.41588e-12
-8.12907e-14
8.72534e-12
-6.07095e-11
-1.73889e-11
-5.73038e-13
2.79295e-11
-3.25631e-13
3.7895e-13
-2.11706e-13
5.96106e-11
-7.01115e-13
-6.24577e-11
-1.26283e-14
7.92779e-11
-6.09429e-11
-5.30439e-11
3.48457e-13
2.3892e-13
5.52848e-13
-1.96036e-13
2.80485e-12
3.2563e-11
-6.54043e-11
2.69684e-12
6.35898e-13
7.11244e-11
9.67536e-14
-5.55972e-12
-4.15439e-11
-1.5468e-11
-6.40227e-11
1.7813e-11
-1.38451e-12
-4.83469e-11
-2.52335e-13
-1.74723e-12
-5.96477e-13
1.20692e-11
-1.26933e-11
1.1656e-12
1.01534e-12
-1.13137e-11
2.91388e-13
9.15067e-12
1.49036e-11
-4.56471e-11
2.98535e-13
1.94048e-12
0
8.51382e-12
-8.92823e-12
-2.92744e-13
-4.40469e-13
-9.7822e-12
-9.40367e-12
3.43292e-12
1.33728e-13
5.78846e-11
-1.00812e-12
5.04071e-11
1.78379e-11
-1.12482e-12
3.22412e-13
-2.06542e-11
-4.52229e-12
3.05702e-11
-1.42724e-11
-5.8483e-11
-6.88882e-13
-6.61591e-11
-6.09808e-12
4.37756e-12
1.16287e-13
1.14766e-12
-2.11115e-11
2.70404e-11
-1.25837e-12
6.13849e-11
1.01185e-10
2.24981e-11
-3.78407e-14
1.40833e-11
-1.27744e-10
-6.26861e-13
-4.30254e-11
8.33808e-14
6.90164e-13
6.76077e-11
-1.38862e-10
4.29758e-11
2.30068e-13
4.00328e-13
5.71108e-13
1.71302e-10
1.61486e-13
-1.89838e-13
-2.2458e-11
8.6446e-14
1.83844e-12
5.93304e-11
-7.23772e-16
1.18689e-11
5.87058e-11
-4.52009e-11
-4.56685e-11
0
-1.58024e-11
-1.6741e-12
1.11165e-12
-1.51252e-11
-6.82734e-14
3.43249e-11
-9.55052e-12
1.03725e-12
4.82898e-11
-1.0098e-11
-1.46347e-13
-1.10077e-11
4.44505e-13
1.02989e-11
0
0
-9.25751e-12
-3.97368e-11
-1.4822e-13
9.47657e-12
0
2.92024e-11
4.465e-13
8.21178e-12
-1.49211e-13
-1.76173e-13
5.68657e-13
-2.99755e-11
-2.63717e-13
-4.80474e-12
-1.08985e-12
5.88949e-11
1.29136e-11
4.75583e-12
2.14049e-11
-2.17604e-11
8.96191e-13
-1.39862e-13
3.28262e-11
-2.97903e-11
4.20983e-11
1.60073e-11
-1.71228e-11
-4.53552e-12
3.16047e-13
1.52723e-14
-8.75829e-14
-2.10199e-12
4.66397e-11
-2.1411e-11
-1.60376e-11
4.33985e-11
-1.15813e-10
-4.76086e-11
2.34335e-11
-4.35939e-13
-4.57783e-11
1.04722e-11
1.54291e-11
1.20489e-13
3.7424e-11
1.67386e-12
-9.50897e-11
3.94755e-11
-2.41628e-11
-2.83676e-11
3.3083e-14
2.85896e-12
-5.49194e-11
-2.58749e-11
6.51571e-13
5.75312e-14
0
1.30011e-11
1.99383e-11
-1.92653e-11
2.01739e-13
-1.92275e-11
-1.10693e-13
7.98902e-13
2.84948e-11
0
-3.07997e-11
0
1.48054e-13
-6.8104e-12
0
2.97592e-13
1.04504e-12
2.58172e-11
2.08441e-11
4.55585e-11
6.76162e-11
9.79062e-12
7.11756e-12
1.39396e-11
9.04918e-12
-2.85316e-11
-8.03941e-12
-2.08414e-11
2.14867e-11
7.12259e-11
2.74285e-11
1.78127e-13
-1.44448e-11
-3.2516e-13
-1.91331e-11
-4.93803e-11
9.61416e-14
2.14442e-11
-9.66528e-14
7.31398e-14
-6.35509e-11
-2.7661e-11
3.13095e-11
-7.28424e-11
1.56688e-11
2.8109e-11
5.94277e-13
2.0805e-11
1.83923e-13
-2.96371e-13
6.23277e-11
6.62532e-11
-1.19237e-11
-8.11564e-11
-7.22698e-11
1.13743e-10
-5.74103e-13
5.63595e-12
-9.92469e-14
4.27293e-11
-9.79177e-13
-5.04276e-11
5.36221e-12
5.41893e-11
4.29004e-11
6.5371e-11
3.34566e-11
5.7699e-13
6.53741e-14
-4.36698e-11
3.13388e-13
-5.06544e-11
-6.18104e-12
-2.15047e-13
-7.42103e-11
-1.06937e-10
-3.40226e-11
-2.71562e-11
1.53729e-12
5.17333e-13
-6.33277e-11
9.63665e-11
-9.10646e-13
-7.00663e-11
7.39172e-11
7.12054e-13
-5.49433e-11
1.36448e-12
-4.04905e-13
-5.7086e-11
8.58415e-11
-5.81629e-11
8.85023e-11
9.6237e-11
1.20148e-10
-9.6167e-13
5.58738e-11
-1.96848e-13
-1.6337e-12
1.2586e-11
-4.47857e-11
-3.37076e-11
-2.82175e-12
-1.01263e-10
5.46752e-11
2.43735e-13
-3.00538e-13
-1.68896e-12
-1.48846e-13
4.76263e-12
-1.33709e-12
7.71301e-12
4.10702e-11
-1.18619e-12
4.3459e-11
7.13176e-12
-2.08395e-12
0
4.45413e-13
2.7598e-11
-2.80041e-11
0
1.525e-11
5.53471e-11
-2.98994e-11
-4.69918e-11
-5.97987e-11
-5.16635e-11
-2.72622e-13
1.11603e-13
3.0059e-11
-8.16943e-12
5.21324e-12
1.04778e-11
9.35655e-12
-3.78532e-11
-2.20386e-11
-2.54195e-11
-6.56493e-13
-2.72911e-11
2.64139e-11
4.06112e-13
-6.33617e-11
-2.08354e-11
3.74649e-11
-1.27748e-14
3.76466e-11
1.59269e-12
1.86104e-13
-1.62655e-13
4.9871e-11
-8.94393e-14
6.23027e-11
-6.76222e-13
6.3943e-11
-4.18303e-13
6.19899e-13
3.36574e-13
-2.74102e-11
2.64526e-13
-5.08926e-11
3.69324e-11
1.33188e-11
-3.51361e-12
-1.21002e-10
-1.29457e-12
2.46969e-11
2.44802e-11
7.34509e-14
2.85057e-11
1.34823e-13
-3.42052e-11
9.87739e-12
7.14044e-12
5.66674e-11
8.82313e-13
-2.7473e-13
1.52897e-14
5.33366e-11
-9.40536e-12
-9.8204e-14
-1.61555e-11
-4.22559e-11
9.76508e-13
-8.74143e-13
3.03336e-13
-3.23018e-11
2.78543e-13
-1.69369e-14
-3.85963e-11
3.49208e-13
4.51474e-11
-4.52712e-11
-1.17674e-12
1.98688e-12
8.64242e-14
-3.57649e-13
2.68096e-13
-5.31793e-11
6.40537e-12
-4.18362e-14
8.64377e-12
4.51487e-11
-8.85329e-12
2.80258e-12
-1.10401e-11
-4.22774e-11
1.46603e-12
-2.68686e-11
0
-3.85345e-12
-2.11644e-11
3.24223e-11
2.66355e-11
2.95997e-13
2.88895e-11
3.26393e-12
1.18771e-12
-1.18562e-12
-4.44367e-13
0
2.66282e-12
0
1.47916e-13
-1.47938e-13
-1.48023e-13
-5.92489e-13
-5.92785e-13
3.8287e-12
-4.6892e-13
1.3001e-13
2.75791e-12
-2.82029e-14
2.85222e-11
8.13333e-14
-2.10264e-11
-6.90278e-13
-5.91183e-13
-2.2537e-11
2.27249e-11
-8.27721e-14
-2.64573e-12
-3.06752e-11
-9.77702e-14
9.80391e-14
-4.45194e-14
3.67574e-13
-4.41352e-14
-5.18109e-12
-3.11244e-11
4.24935e-15
7.21154e-16
5.75369e-13
-2.86e-11
-1.55384e-13
2.05883e-11
-2.8296e-11
-1.29971e-13
2.28145e-11
-2.20544e-11
-2.69798e-11
2.92734e-12
3.07883e-11
3.43713e-13
-1.98204e-11
1.204e-13
-3.53821e-13
1.20187e-13
7.71371e-14
3.11749e-11
-3.37958e-11
-8.53407e-14
-1.17123e-12
5.43187e-14
2.07695e-11
5.75214e-13
2.86524e-11
9.624e-14
2.21461e-11
-4.76695e-13
2.67153e-11
1.40973e-13
-2.57417e-14
-2.21503e-13
-1.2447e-11
-3.55847e-13
-9.02748e-14
7.33331e-14
-7.63557e-14
-6.72405e-14
3.43302e-11
2.40008e-11
5.97745e-13
-6.07288e-13
1.3502e-11
2.60256e-13
2.65224e-13
5.0364e-13
-2.19286e-11
1.15606e-14
-4.09787e-13
-1.46413e-13
-6.93302e-14
1.05121e-13
3.28383e-11
-4.5025e-14
-2.12049e-13
-3.13801e-13
-1.48188e-13
-1.48109e-13
-7.40029e-13
-2.3964e-11
1.47915e-13
1.47906e-13
-3.34305e-11
-4.43998e-13
0
-2.96396e-13
0
1.48005e-13
-1.42029e-11
2.11506e-11
-2.95791e-13
-1.47896e-13
5.02894e-12
2.23407e-11
5.92028e-13
1.48051e-13
-2.15164e-11
-2.87809e-14
-1.35989e-11
3.32043e-15
-2.03783e-13
-2.12445e-13
1.10949e-13
7.78765e-12
-2.01187e-11
3.14069e-13
-2.1529e-11
-2.76606e-14
3.76758e-13
-4.8328e-11
-1.37621e-11
-3.32119e-12
-8.54768e-12
-2.75588e-11
2.37641e-13
-1.05533e-14
2.22523e-11
-2.15128e-11
-2.25976e-11
-7.9107e-14
2.83276e-11
3.83799e-11
-4.48071e-13
1.34749e-11
2.07834e-11
1.27934e-12
2.13498e-11
2.72996e-14
-7.70341e-15
2.7145e-11
1.43272e-11
3.89058e-12
3.29827e-12
2.85807e-11
6.19341e-14
-5.16008e-13
-6.66943e-13
-7.05371e-12
1.43733e-12
1.89166e-13
-2.87815e-11
-6.66807e-11
-2.84685e-11
1.13625e-12
-2.20991e-11
-1.0016e-12
-1.90803e-13
-3.03667e-14
-4.48007e-14
-9.40372e-14
2.86887e-13
-5.15881e-13
-5.06619e-13
-1.16166e-12
1.7537e-13
2.27508e-11
2.01556e-13
6.10565e-13
-5.17894e-12
-9.52382e-15
3.03369e-11
2.96628e-11
2.93373e-11
-1.88277e-13
2.2057e-11
-8.23103e-14
5.22382e-14
1.20835e-13
-9.00998e-13
9.28943e-14
-6.43233e-13
-2.44232e-11
-3.82135e-13
-2.73299e-11
3.41739e-11
-2.23736e-11
-1.48043e-13
2.78234e-11
2.60372e-11
-2.95797e-13
-3.04649e-11
-2.45493e-11
-4.437e-13
-2.72212e-11
3.38925e-11
0
-5.10497e-11
-2.91453e-11
7.3958e-13
0
5.91557e-13
-2.54371e-11
0
5.91681e-13
2.16005e-11
2.95944e-13
-4.43145e-11
-2.41228e-11
1.99395e-13
-1.89824e-11
-1.88229e-11
-2.05392e-11
-2.0228e-13
2.84327e-11
3.30931e-13
3.89282e-13
2.72767e-11
2.92799e-11
-5.91597e-13
-7.25925e-13
-3.03767e-11
-6.75008e-12
2.47281e-14
2.47622e-13
-2.18088e-11
5.40958e-13
-4.94864e-12
2.43053e-11
-3.54495e-13
1.87679e-11
-7.98136e-12
2.06935e-11
-2.56277e-13
-5.15788e-11
2.04663e-11
3.30999e-12
1.08715e-12
2.71301e-11
-5.15926e-14
-1.81994e-14
3.03211e-11
3.24712e-11
-2.12533e-14
-2.84934e-13
2.88507e-13
2.01318e-11
2.73099e-11
4.40874e-14
2.33471e-11
2.66398e-13
2.66398e-11
-1.15659e-13
-4.25174e-13
2.37372e-11
6.24983e-12
-3.18881e-12
-3.41585e-13
-2.70698e-11
-2.25766e-14
-3.58482e-14
-2.87751e-11
-1.35434e-12
5.405e-14
-8.02125e-13
-2.34452e-13
-2.09057e-11
2.39325e-13
-1.65627e-13
-2.30503e-11
1.20704e-13
4.82639e-13
7.54181e-14
2.28796e-13
2.2006e-13
-4.97458e-11
-2.48501e-15
-1.78021e-13
2.46167e-13
-2.05921e-13
-9.07357e-14
2.84738e-11
1.11905e-12
2.9318e-12
4.94726e-13
6.08763e-13
1.97012e-14
0
4.43819e-13
1.4791e-13
2.95779e-13
0
0
2.80996e-12
0
2.21919e-11
2.95943e-13
-9.83702e-12
-6.65729e-13
7.39659e-14
-3.69593e-13
2.23297e-11
-5.02791e-12
-5.17485e-13
-7.39032e-14
-2.2181e-13
7.37721e-14
-9.53921e-12
-1.40432e-12
7.39413e-14
-2.15162e-11
-7.39391e-13
-2.76539e-11
-2.27003e-11
-7.3885e-14
7.42186e-14
2.22501e-13
2.21045e-13
5.16808e-13
-2.95708e-13
1.48213e-13
-2.38104e-11
5.17633e-12
5.91776e-13
-1.47773e-13