/*--------------------------------*- C++ -*----------------------------------*\
  =========                 |
  \\      /  F ield         | OpenFOAM: The Open Source CFD Toolbox
   \\    /   O peration     | Website:  https://openfoam.org
    \\  /    A nd           | Version:  10
     \\/     M anipulation  |
\*---------------------------------------------------------------------------*/
FoamFile
{
    format      ascii;
    class       volScalarField;
    location    "1.2";
    object      gradTz;
}
// * * * * * * * * * * * * * * * * * * * * * * * * * * * * * * * * * * * * * //

dimensions      [0 -1 0 1 0 0 0];

internalField   nonuniform List<scalar> 
47104
(
5.96396e-13
7.45367e-13
4.46795e-13
-3.71779e-12
1.48558e-13
0
-1.4871e-13
-1.48928e-13
-4.47202e-13
-1.49091e-13
-2.9813e-13
-1.48935e-13
-5.18555e-11
-2.61996e-11
1.03349e-12
-1.47641e-13
1.48019e-12
2.67445e-11
-3.35092e-11
3.02588e-11
-1.66788e-11
2.9715e-13
1.01924e-11
-8.77998e-12
-1.45444e-13
-1.87622e-11
1.02432e-11
1.47714e-13
-2.97142e-13
-1.04238e-12
-2.89961e-11
-8.88062e-13
0
-1.07973e-11
-2.26566e-11
2.37965e-11
-2.87925e-13
2.1949e-12
-2.96013e-11
-3.19687e-11
2.97099e-13
0
1.25078e-11
1.28244e-12
1.40674e-13
-6.75234e-12
-2.99233e-12
0
2.95259e-13
-3.38676e-11
-2.82255e-11
0
-2.03618e-12
1.42493e-13
9.14374e-12
1.40673e-13
1.53891e-11
-1.45438e-13
-6.7763e-11
-2.91148e-11
-2.84042e-11
1.31738e-11
-1.05359e-11
-3.09516e-11
2.97804e-11
5.6996e-13
0
1.28768e-11
-3.70029e-11
2.98887e-11
0
-5.94332e-13
1.40327e-11
9.65732e-12
6.35542e-11
-2.90868e-13
1.46325e-13
-4.43135e-13
1.48576e-13
-7.44609e-13
0
2.88925e-11
1.27768e-11
-7.4e-13
-4.42869e-13
-5.90501e-13
-8.88035e-13
-3.28345e-11
-1.4893e-13
-6.11171e-11
0
-2.98113e-13
-7.44526e-13
-4.4605e-13
1.48533e-13
-1.35168e-11
-2.95896e-11
7.44574e-13
2.84709e-11
-1.49094e-13
5.58629e-13
8.76985e-13
3.76314e-11
2.74577e-11
-1.1265e-13
4.84061e-13
1.49226e-13
0
-5.97376e-13
-3.17536e-13
-1.91505e-14
-1.01002e-12
2.87263e-11
6.56337e-12
-2.78463e-12
-8.96583e-13
-5.35864e-11
-9.3217e-12
2.06111e-11
2.99957e-11
-6.8681e-12
3.85193e-13
-2.205e-11
-9.19344e-12
0
2.95676e-13
-5.82977e-11
5.94152e-13
-1.14571e-11
-7.46501e-13
-2.86477e-11
1.12912e-11
-8.51093e-11
-2.63504e-12
2.0925e-11
-2.11968e-11
5.82403e-13
5.24422e-11
3.15373e-11
-7.46005e-13
0
2.6493e-12
-1.18314e-12
0
-6.72703e-11
-1.06224e-11
-6.45912e-11
-2.93228e-13
-1.26999e-13
1.49159e-13
-5.96704e-13
2.27941e-13
5.91341e-13
2.90365e-13
-7.49307e-11
-2.00676e-12
-9.21604e-12
6.00753e-11
-1.85798e-11
1.49164e-13
5.9693e-13
-5.5079e-11
2.66334e-12
5.82398e-13
-6.22838e-11
-3.74399e-12
4.01891e-11
8.80686e-13
-9.09034e-12
-4.47643e-13
0
-8.37864e-12
-8.91228e-13
-8.8384e-13
-3.37204e-11
2.93044e-13
2.93557e-13
2.95743e-13
5.77431e-12
-7.46597e-13
2.98711e-13
-1.07733e-11
-3.57291e-12
-2.55108e-11
-9.46428e-12
1.64336e-11
-8.92678e-12
-1.8661e-11
-1.2681e-11
-3.24077e-11
-1.9143e-14
-3.33186e-11
3.88156e-11
1.4919e-13
-2.6184e-13
3.14895e-11
-6.14999e-13
7.46544e-13
2.87109e-11
3.82396e-14
3.03242e-11
1.32777e-13
2.54026e-12
4.1855e-12
5.72382e-14
-4.15687e-11
-5.47561e-13
4.27984e-12
4.26339e-13
1.94487e-14
-2.32313e-13
3.7895e-11
4.75085e-11
1.67475e-11
-5.54535e-11
1.49957e-12
-5.92755e-11
-3.7632e-11
4.50602e-11
-3.48003e-11
1.58714e-11
7.70797e-11
-2.11597e-10
2.34006e-10
2.56927e-10
2.45164e-10
3.13241e-10
1.9666e-10
-6.24716e-11
8.525e-14
2.00045e-13
5.98057e-13
3.21485e-10
6.00322e-06
5.48304e-07
5.79684e-07
2.82061e-07
1.36732e-06
2.74105e-11
9.62071e-13
-4.10689e-13
0
2.37135e-10
5.4556e-07
-3.03406e-05
-3.10772e-05
-2.72141e-05
1.79954e-06
8.56253e-11
3.36963e-11
-3.07185e-12
-5.99818e-13
2.73215e-10
5.79261e-07
-3.10772e-05
-3.1867e-05
-2.77813e-05
1.82237e-06
1.13285e-10
2.86261e-11
2.87486e-11
-2.78422e-11
3.05955e-10
2.83125e-07
-2.72144e-05
-2.77816e-05
-2.47351e-05
1.74036e-06
6.67296e-11
-2.95957e-11
2.77469e-11
7.04885e-11
1.86673e-10
1.36731e-06
1.79964e-06
1.8224e-06
1.74031e-06
-8.21289e-08
-7.51595e-12
-3.13855e-13
1.25456e-13
-3.84971e-11
-1.08119e-11
7.71064e-11
5.89973e-11
3.08946e-11
4.28738e-11
1.443e-11
6.10203e-11
2.86625e-11
1.68665e-13
-6.2207e-13
3.28143e-11
4.17931e-13
2.84943e-11
4.42188e-11
2.916e-11
-6.61433e-14
3.4933e-11
4.0866e-13
4.46548e-13
-3.43013e-13
-3.71666e-11
-2.72793e-11
9.04766e-13
-3.19332e-13
9.2269e-13
-3.02642e-11
3.67542e-13
0
-3.41385e-11
-7.15961e-11
-1.68263e-13
-2.50752e-10
-2.4089e-10
-2.62439e-10
-3.77423e-10
-7.00625e-11
-5.99529e-11
-4.25211e-12
-3.17438e-11
-1.40923e-11
4.16139e-08
-4.90093e-05
-4.4411e-05
-4.42151e-05
-4.46301e-05
-4.84908e-05
-1.91429e-09
-4.25602e-11
7.42616e-13
-2.25103e-10
-4.90244e-05
-224.94
-292.725
-293.355
-291.839
-2.16444
1.48555e-07
1.16317e-13
8.85838e-13
-2.60708e-10
-4.44111e-05
-292.724
-403.626
-405.098
-401.372
-3.84444
-1.6264e-08
1.64856e-12
9.13972e-13
-3.25531e-10
-4.42166e-05
-293.355
-405.098
-406.651
-402.768
-3.86073
5.07609e-09
4.67277e-11
5.07551e-13
-2.853e-10
-4.46412e-05
-291.839
-401.372
-402.768
-399.21
-3.84102
-7.05549e-08
7.69319e-13
4.85914e-13
-1.24526e-10
-4.84229e-05
-2.16448
-3.84446
-3.86074
-3.84103
-0.827908
3.5444e-07
3.84715e-13
-4.91412e-14
2.96842e-13
-2.00912e-09
1.47708e-07
-1.68077e-08
3.57792e-09
-7.99532e-08
3.53951e-07
-6.09967e-11
-1.19971e-13
-2.97683e-13
3.32088e-11
-3.85292e-11
9.68845e-13
-2.70728e-11
3.34176e-13
4.46158e-11
-2.64751e-13
3.67071e-11
0
-3.0179e-11
2.77937e-12
-1.92575e-12
1.96938e-12
3.28583e-12
4.42785e-11
2.16082e-12
-4.07555e-12
-7.42217e-13
-1.93698e-14
-2.74666e-11
-1.48218e-12
2.77402e-12
1.09699e-08
2.37954e-08
2.38372e-08
2.25931e-08
-4.3684e-10
5.98356e-11
3.52961e-11
6.34912e-14
-6.27722e-11
-1.72227e-08
0.0164347
0.0324795
0.0326941
0.0320124
9.41587e-05
-7.39585e-10
3.12608e-11
1.91112e-12
1.08907e-08
0.0164063
2.97865e-05
5.41524e-12
2.81775e-12
2.36972e-08
0.0324741
4.66057e-05
2.91016e-12
3.4613e-11
2.38215e-08
0.0326864
4.72681e-05
4.8037e-12
1.95478e-12
2.16485e-08
0.0316572
4.37122e-05
3.24867e-11
2.4274e-12
-8.92447e-10
8.94338e-05
-8.42774e-07
-4.1103e-12
1.306e-11
2.96305e-13
-5.72864e-10
2.97572e-05
4.65952e-05
4.71844e-05
4.15172e-05
-7.94374e-07
4.46979e-12
7.60617e-13
1.29189e-13
4.18101e-13
-3.25127e-11
3.48555e-11
-2.57874e-11
2.9224e-12
2.51537e-12
-6.45795e-15
-2.25644e-12
0
1.22841e-12
-3.58309e-13
3.33423e-13
7.9168e-13
6.30168e-13
9.49807e-13
4.78903e-13
3.04282e-11
-2.74996e-13
-1.29363e-13
3.4034e-11
2.97265e-13
1.13581e-12
2.14832e-09
5.40609e-09
5.46548e-09
4.9713e-09
-6.67051e-11
-2.97749e-13
3.50311e-11
-5.33668e-12
1.41069e-12
1.21365e-09
0.000657948
0.00103853
0.00101014
0.00102542
3.64811e-06
-2.52476e-10
4.26511e-11
4.80938e-13
2.01676e-09
0.000606907
1.72307e-06
4.53484e-13
1.13055e-12
5.3434e-09
0.00103125
3.01416e-06
-3.06651e-11
-4.22174e-11
5.55385e-09
0.00101267
3.14528e-06
-4.50011e-11
9.20957e-13
5.10039e-09
0.0016415
2.67757e-06
5.38538e-13
-5.07278e-14
9.87973e-12
0.000752447
-6.36871e-08
3.98734e-11
3.32862e-14
2.97643e-13
-2.76567e-10
1.77421e-06
3.01855e-06
3.19195e-06
5.74404e-06
4.27249e-08
1.80239e-12
2.67029e-13
-9.03989e-14
-3.74312e-11
-6.64594e-13
-2.99867e-11
6.07291e-11
3.21404e-11
-4.25016e-11
-4.37184e-12
-3.62842e-11
-1.09867e-13
-6.33856e-13
-6.11305e-11
-3.57046e-13
-9.84533e-14
-1.62115e-13
3.37541e-11
-2.85636e-11
-2.72864e-13
6.79e-13
7.43833e-13
2.77392e-11
-2.38232e-12
2.7165e-13
5.27254e-10
1.44095e-09
1.56709e-09
1.44184e-09
-1.85006e-10
5.698e-11
1.90697e-14
2.77779e-13
-2.04361e-13
1.19508e-09
0.00028437
0.0003583
0.000298566
0.000384624
8.36851e-07
1.97097e-11
-3.15405e-11
-4.8143e-13
-2.60284e-11
-8.36431e-05
2.56754e-07
5.68463e-11
-4.60168e-13
1.10033e-09
0.000282286
4.45223e-07
2.46884e-13
2.36511e-13
1.47449e-09
0.00030175
4.7249e-07
-1.18481e-12
-3.65997e-11
1.66592e-09
0.000539968
3.88142e-07
-3.01274e-11
-3.00368e-11
-1.71601e-10
2.82682e-06
-1.05792e-08
3.48612e-12
-1.30743e-11
-5.96606e-13
-3.41438e-11
2.59054e-07
4.46352e-07
4.97698e-07
8.23121e-07
-3.86774e-08
-1.50566e-12
-3.88277e-13
4.07502e-13
-1.27489e-14
-2.98478e-11
-3.28035e-11
3.4689e-11
3.74857e-13
5.52194e-13
1.23612e-13
-3.24401e-11
-3.87757e-14
-5.95434e-13
4.72728e-12
-5.29432e-13
-1.51868e-13
-6.51925e-12
-7.79695e-13
6.79601e-14
-7.60569e-13
2.27228e-13
0
9.74719e-14
4.17195e-12
-4.30619e-13
4.74062e-11
3.4138e-10
3.3461e-10
3.73917e-10
6.56374e-11
-1.12885e-10
-3.12508e-11
4.40358e-11
-5.73841e-11
2.14529e-09
0.000219387
0.000283614
0.000218389
0.000312124
-8.03344e-07
4.20043e-11
4.79292e-13
-2.71884e-13
-1.06547e-09
0.00506609
-1.91788e-08
4.34194e-13
-2.4699e-13
-3.2499e-11
-3.5319e-05
-5.51055e-08
3.04106e-11
7.30564e-11
3.53046e-10
0.000217184
-5.89352e-08
3.07608e-11
-4.40698e-13
3.03743e-10
0.000320018
-5.16212e-08
-7.83558e-13
-2.13126e-13
8.35733e-11
-6.92186e-07
2.30526e-09
-3.95165e-11
1.45756e-13
-6.27124e-12
2.68208e-11
-2.73952e-08
-5.83972e-08
-1.29656e-07
-2.33015e-06
4.63494e-08
-9.03945e-13
-3.73173e-13
-1.48836e-13
3.71829e-11
5.21812e-13
3.13006e-11
-3.87745e-11
-3.14514e-11
-5.1553e-13
4.07581e-12
-5.49201e-13
-5.9548e-13
1.48904e-13
5.82611e-11
1.91248e-13
-3.59441e-11
-7.92093e-13
-3.48866e-11
2.80516e-11
-2.29116e-14
3.97944e-11
-5.9559e-13
-4.00354e-11
-7.83942e-11
3.42788e-13
-8.07413e-10
-2.37297e-09
-2.49574e-09
-2.18299e-09
4.73121e-11
5.64507e-11
-4.79399e-13
-3.72402e-11
5.83319e-11
3.09929e-09
0.000134942
-7.86842e-05
-0.000164932
-2.72692e-05
-2.36975e-06
1.12182e-10
2.93666e-11
-3.13184e-11
2.90006e-10
-0.00156049
-1.5422e-06
8.15197e-12
-4.92737e-13
-2.03817e-09
0.000199165
-3.00017e-06
-7.73531e-13
-3.09315e-11
-2.40794e-09
-0.000158099
-3.11712e-06
-1.7031e-12
3.66339e-11
-2.11951e-09
-2.56232e-05
-2.59977e-06
-1.85988e-13
2.94839e-11
6.2445e-11
-1.96834e-06
4.06654e-08
3.77675e-12
-2.14453e-13
7.25783e-11
9.06476e-11
-1.54551e-06
-2.99879e-06
-3.06648e-06
5.05458e-07
5.69674e-08
0
7.16343e-15
-2.97783e-13
7.22287e-15
3.27896e-11
3.9183e-11
-3.53678e-11
-7.90564e-13
-4.65512e-11
-4.04635e-11
-9.75179e-14
-1.48925e-13
-4.46784e-13
-4.29291e-12
2.8374e-13
2.92288e-11
5.92479e-12
2.74133e-11
1.62267e-14
-5.01902e-13
3.01045e-13
-2.97877e-13
4.37517e-13
7.75011e-11
-1.90072e-12
-2.34751e-09
-4.49588e-09
-4.21915e-09
-4.52642e-09
6.24657e-11
0
-3.56521e-12
1.27016e-13
-5.57822e-13
2.75822e-09
-0.0102975
-0.0245518
-0.0248339
-0.0240832
-6.285e-05
5.59628e-10
-3.88203e-13
9.90576e-14
-1.94881e-09
-0.00963607
-2.19659e-05
-5.3969e-13
1.01651e-13
-4.47761e-09
-0.0244633
-3.73198e-05
3.45549e-11
-3.00753e-11
-4.40914e-09
-0.0248489
-3.79215e-05
-3.01876e-11
-2.91207e-11
-4.70413e-09
-0.0240893
-3.45461e-05
-3.39675e-11
-9.77015e-16
4.73557e-11
-6.3381e-05
2.88728e-07
-1.95228e-13
-4.86493e-13
-6.57029e-11
6.37971e-10
-2.19803e-05
-3.73187e-05
-3.78827e-05
-3.40892e-05
2.60959e-07
-6.02334e-13
1.87283e-13
-2.9786e-13
4.99182e-13
-1.58263e-12
3.50175e-11
-2.10529e-11
1.38333e-14
6.34828e-13
6.26223e-13
-3.21996e-14
8.9377e-13
4.21469e-11
2.72518e-11
6.45173e-13
3.53473e-11
1.29749e-12
2.99261e-14
-2.1341e-13
-5.54504e-13
-3.95623e-11
1.48955e-13
7.39215e-11
-5.96154e-13
5.76372e-13
-1.18613e-10
-7.35517e-11
-7.77087e-11
-8.0182e-11
1.01404e-11
2.08983e-12
8.54025e-13
3.71816e-11
-7.22287e-11
-1.92951e-08
0.0002157
0.000203767
0.000203015
0.000204671
0.000202319
5.76575e-10
-6.03421e-11
3.16397e-11
-5.37191e-11
0.000215529
-1.72443e-07
-3.81031e-11
-2.07377e-13
-8.65004e-11
0.000203856
-2.10364e-07
-1.55669e-13
3.02837e-11
-1.34907e-10
0.000202137
-2.11052e-07
4.45017e-13
-5.25613e-13
-6.22682e-11
0.00020477
-2.06699e-07
-2.89331e-11
-6.03573e-11
4.60558e-15
0.000202415
1.82256e-08
-4.94407e-11
1.59538e-13
-7.76182e-11
5.62509e-10
-1.72484e-07
-2.1029e-07
-2.10916e-07
-2.06167e-07
1.8612e-08
6.02208e-13
-3.01349e-13
-7.44725e-13
-3.49875e-11
-4.84264e-11
-6.67077e-11
-2.95463e-15
-7.76452e-14
4.52655e-11
1.37539e-14
-2.88343e-11
-1.48971e-13
0
-3.51908e-11
2.94163e-11
-2.90467e-11
-3.39192e-11
-2.64994e-11
-1.30456e-11
1.68007e-12
-7.48298e-13
-1.4895e-13
1.1407e-13
-2.98101e-13
1.24407e-10
-2.92924e-13
-5.85873e-13
-7.03665e-12
-5.8512e-13
4.20083e-13
-7.79437e-11
-2.8115e-11
8.41272e-14
7.21308e-11
-1.22628e-12
1.32036e-10
1.17604e-12
-2.35599e-12
5.87198e-13
-1.16237e-10
-3.97292e-13
-5.06392e-11
5.8687e-14
-6.97007e-11
-1.38683e-10
1.76018e-12
-2.70376e-13
4.57341e-11
0
1.64005e-10
-6.72761e-11
-3.43889e-11
-2.26139e-13
0
9.13284e-11
1.67901e-10
-8.66286e-13
7.15881e-11
4.35937e-11
2.67637e-10
1.31539e-11
-5.92861e-12
-1.54445e-12
1.10522e-11
1.81754e-10
-1.47941e-12
1.99274e-13
-9.21807e-12
7.73766e-11
-2.03482e-11
1.71875e-12
5.42747e-11
-5.74661e-11
7.11195e-14
1.85071e-12
0
-3.46191e-11
1.48938e-13
1.72317e-13
1.49869e-12
-3.47182e-11
2.82939e-11
5.48809e-14
-5.34719e-13
3.51624e-11
-8.6181e-13
-1.10136e-13
-4.19905e-11
-2.79317e-11
-3.25798e-13
2.5522e-13
-1.84794e-12
-3.55144e-13
2.81109e-11
-2.89798e-11
1.78958e-13
-1.93487e-14
-3.48248e-11
0
-1.22389e-10
2.92849e-12
-5.85626e-13
-4.71843e-11
2.92439e-13
-2.33638e-13
1.37394e-10
-1.04309e-12
4.64956e-13
-5.18843e-13
-1.83876e-12
4.68473e-12
1.24913e-10
5.90812e-13
1.02448e-10
2.02284e-12
-1.00238e-10
3.09175e-11
-2.16813e-11
7.0542e-11
-3.21263e-13
4.3685e-13
-4.37706e-11
7.94419e-13
-2.92816e-13
3.1026e-10
-7.4263e-12
-3.23399e-11
-7.04418e-14
-2.93059e-13
2.8356e-11
-7.79131e-11
-1.11905e-12
4.48605e-13
-4.21096e-11
-9.89054e-11
1.04928e-12
2.85521e-11
-7.8944e-12
-1.05738e-11
-3.20841e-13
7.72136e-11
4.57771e-11
8.28544e-14
6.39153e-11
8.67038e-13
3.56075e-13
-5.64722e-11
5.70783e-11
2.599e-13
-2.27395e-12
5.06924e-13
-4.03857e-11
8.93536e-13
3.49847e-11
9.0283e-11
6.85211e-11
-4.16708e-11
3.03429e-14
-3.02225e-13
4.04629e-11
2.89692e-11
-1.23032e-12
-7.44475e-13
3.56659e-11
-2.96597e-11
5.27335e-14
3.53102e-11
2.87039e-13
1.28318e-11
-2.31884e-13
-1.50549e-11
-7.89333e-12
2.67449e-13
0
-1.1401e-12
6.4118e-11
7.79014e-11
5.51065e-11
2.92478e-13
-5.02874e-13
-6.06347e-11
3.15809e-11
1.43895e-13
-7.80381e-11
-6.12541e-13
5.41875e-12
-1.45404e-12
-1.10513e-10
-5.88924e-13
-8.88788e-11
1.00511e-10
2.17451e-11
3.82571e-11
5.85467e-13
5.57273e-13
3.93971e-13
-1.08494e-13
-1.70574e-11
0
6.45656e-13
-1.62706e-11
-1.08653e-13
-4.86324e-14
-1.17243e-12
0
6.32864e-11
3.60571e-13
-4.26517e-11
-2.13497e-11
7.65549e-11
2.9728e-12
4.07121e-11
1.58033e-12
-1.37874e-12
1.3115e-10
-1.21543e-11
-7.36768e-13
9.82902e-12
-6.24184e-11
-7.28174e-13
-1.28723e-12
-6.62536e-11
-9.04268e-11
-7.4272e-12
4.9975e-14
-1.20558e-12
3.43664e-11
1.4891e-13
-2.88815e-13
-4.77959e-13
-1.35025e-12
-2.22944e-13
-4.52293e-14
6.48635e-13
-3.55717e-11
6.57213e-13
-3.96157e-11
-2.97787e-13
6.77576e-13
-2.30338e-14
-2.04199e-13
9.8125e-14
-1.94966e-13
-2.78823e-11
2.96516e-11
-1.3558e-13
-1.29578e-13
-3.54815e-13
-5.96202e-13
-3.48808e-13
-6.79525e-11
-8.02328e-11
-2.93082e-13
1.90092e-11
-7.98945e-12
5.97323e-13
7.3569e-13
-5.4033e-13
7.86441e-11
0
-1.05835e-13
-5.89841e-13
5.90948e-13
7.06675e-12
-1.39195e-10
2.7444e-13
-2.92996e-13
-9.5401e-12
-6.79135e-11
3.53242e-11
6.44416e-11
9.41644e-12
-8.46885e-13
1.75693e-12
-1.39461e-10
9.03006e-11
3.26542e-11
-5.38206e-14
-7.76615e-11
1.18188e-12
-6.29163e-11
-3.86991e-12
-1.41064e-13
1.95919e-11
0
-7.35196e-11
1.06727e-13
3.47028e-12
5.24404e-13
-4.04159e-12
-2.05399e-11
1.92858e-13
-5.40811e-14
-2.68862e-12
-3.33573e-13
1.06577e-12
-1.47741e-11
9.10495e-11
2.07661e-11
-2.60569e-13
-7.32397e-11
4.03324e-11
-4.4673e-13
-3.6702e-14
-4.45388e-11
-4.0918e-11
1.18777e-11
-3.19558e-11
1.28628e-12
-5.20942e-13
2.18335e-13
-4.02123e-11
7.4452e-13
-7.30244e-14
-1.67561e-13
-1.4242e-13
-1.36345e-13
-2.68997e-13
-2.36247e-13
-3.51883e-13
5.14233e-11
8.04306e-12
-3.44664e-11
1.19218e-12
-3.14074e-13
2.63561e-12
0
0
-1.93008e-11
8.3558e-12
2.98561e-13
4.62202e-13
-3.91139e-12
-1.02664e-12
0
1.32362e-10
1.52037e-10
-1.18072e-12
5.88382e-13
-1.22202e-12
2.80991e-12
2.88169e-11
-3.81904e-11
1.52841e-10
1.38879e-12
-6.39518e-11
1.78698e-13
-2.89855e-11
1.17118e-12
1.17859e-12
6.29515e-13
-5.60571e-13
-5.13397e-13
1.37437e-10
1.22202e-10
2.12712e-13
7.34242e-13
-3.31517e-13
-8.45044e-11
5.29442e-12
6.96959e-11
-8.84984e-14
5.16268e-14
7.12999e-11
-1.75332e-10
5.16633e-11
1.12257e-13
6.50727e-13
1.19453e-12
1.52886e-11
8.51614e-13
8.20848e-11
-2.18437e-12
5.40194e-11
-5.49064e-11
1.51223e-10
1.9717e-13
2.7844e-13
3.67253e-11
1.18211e-13
-2.68622e-11
1.02946e-13
4.26211e-13
-3.20445e-13
1.28612e-11
-1.942e-14
3.9621e-11
4.46798e-13
-2.22352e-13
-4.54987e-13
2.01375e-13
-1.2205e-13
1.32541e-13
1.21013e-13
-6.58452e-12
-1.18777e-13
-5.9783e-12
3.13174e-11
6.13911e-11
-1.48128e-12
-1.46644e-12
5.87719e-13
0
-2.93392e-13
-1.47122e-12
8.95401e-13
-3.33873e-13
3.23675e-14
1.21437e-13
-1.22082e-12
4.81565e-11
-1.49482e-10
-5.91663e-13
-1.31604e-10
-1.59068e-10
-4.02879e-12
5.8806e-13
7.63761e-11
-8.56313e-11
-1.56086e-10
8.44603e-11
3.46453e-11
-5.12758e-13
-1.46921e-12
-4.13583e-12
-5.73962e-11
-3.92832e-14
-6.88371e-13
-5.76444e-11
1.18331e-12
6.52311e-11
5.21612e-11
-5.72305e-13
8.39055e-11
-5.90101e-13
9.47463e-13
-6.37563e-13
3.38332e-11
-7.09468e-11
9.95397e-11
3.8291e-11
-3.02316e-13
1.38376e-13
-5.96863e-13
-1.31677e-11
8.03845e-11
9.53097e-11
-3.62223e-13
-6.75042e-11
5.47201e-11
-7.52248e-11
2.80865e-13
-5.76403e-13
-3.41552e-11
-2.73052e-11
-4.71335e-13
2.91586e-11
3.17624e-11
-6.86162e-13
7.56159e-13
6.01944e-13
4.12683e-11
1.48953e-13
6.05093e-13
7.83482e-13
1.0069e-13
8.80113e-14
4.0573e-13
-2.722e-11
2.83308e-11
-3.62857e-11
3.17312e-13
8.53728e-11
-6.23177e-11
8.0407e-13
-8.8044e-13
2.93901e-13
-6.20675e-11
2.93462e-13
3.94364e-13
-1.19487e-12
-3.9081e-13
3.79632e-12
-3.81856e-13
-6.13792e-13
-7.35426e-13
1.15316e-10
-1.85275e-12
-1.1337e-10
-1.58261e-11
1.97579e-11
9.16064e-13
1.1242e-13
8.80321e-13
1.6515e-12
-1.65145e-10
1.51094e-13
-5.85036e-14
-8.81652e-13
1.08527e-10
1.17949e-10
3.46716e-13
-3.32892e-11
-3.52978e-12
1.29342e-12
-6.49521e-11
6.5753e-12
-1.97899e-13
5.86907e-13
-3.4013e-12
1.14723e-13
-3.316e-13
-3.27345e-11
6.2898e-12
-2.84458e-10
2.93457e-13
-4.74825e-11
-7.2417e-13
-2.7184e-11
-2.36056e-11
-1.43045e-10
-1.91995e-11
7.96219e-11
1.02678e-12
2.79986e-13
7.62579e-11
-4.0158e-11
1.48979e-13
-3.66201e-11
-2.39722e-13
-1.35619e-11
-5.37143e-13
1.43767e-14
1.02726e-13
-1.30856e-11
-1.92417e-13
3.36853e-13
-5.95802e-13
2.62148e-13
3.04035e-11
-2.89722e-11
-3.62002e-13
-2.85217e-11
-1.25184e-13
7.01687e-12
5.12989e-14
5.79058e-12
-3.12669e-11
-2.98181e-13
-6.37284e-13
-7.6741e-11
0
6.09617e-11
5.84942e-13
-8.98617e-11
7.2876e-11
1.10236e-12
2.02423e-13
1.09162e-13
6.13609e-13
3.89859e-12
0
-3.53873e-12
-1.45192e-10
1.33276e-12
7.23305e-11
3.00135e-11
-4.517e-11
5.88663e-11
-9.20364e-13
7.7183e-12
-2.54245e-13
9.03384e-13
0
-1.17751e-12
-6.07358e-11
2.3614e-13
4.14202e-13
2.93073e-12
1.17957e-12
5.38474e-13
-4.7245e-11
-3.54465e-11
-8.77371e-13
-9.99285e-11
6.28765e-13
-4.43291e-11
6.773e-13
-5.54834e-12
-9.88159e-14
-6.10903e-11
-2.76582e-11
1.0882e-13
-3.37503e-11
1.10687e-12
6.13571e-11
-7.57099e-11
-1.59523e-10
-9.2409e-12
-1.14097e-12
-1.70885e-10
-2.49359e-13
2.97938e-13
3.35304e-11
2.74139e-11
3.00732e-13
4.07627e-11
-6.85234e-13
6.86409e-12
4.03763e-11
-2.59612e-13
-3.88352e-14
-2.93459e-11
1.74971e-13
-6.15213e-13
-3.81862e-13
-5.26176e-14
3.24587e-11
2.73757e-11
-2.8636e-11
-1.86416e-13
-1.29651e-13
-8.51255e-11
1.49084e-12
-3.50346e-13
7.64436e-11
0
-6.15479e-11
-5.70283e-11
1.65696e-10
-1.46352e-11
4.54438e-11
-3.44296e-13
1.8162e-12
-1.84062e-12
-1.5112e-13
-4.2586e-13
-3.5453e-12
1.17752e-12
-1.55385e-10
-7.09105e-11
-6.16755e-13
3.26344e-11
-1.36471e-10
1.30508e-12
7.23137e-11
3.69589e-13
7.36387e-13
8.2283e-11
-3.58676e-12
9.59956e-13
9.45823e-14
3.3681e-11
-8.79206e-13
-1.0754e-10
-4.95904e-13
2.08411e-11
9.84396e-14
8.07095e-11
1.17746e-12
9.41628e-14
1.45524e-13
3.30706e-11
-1.56317e-13
-1.4939e-10
1.33775e-10
8.48028e-11
-5.07014e-14
6.09365e-11
-3.75946e-12
6.84387e-13
7.98008e-11
7.91906e-11
-7.40277e-11
1.73831e-12
9.49524e-11
9.39374e-11
0
-1.13403e-13
-6.19233e-12
4.12453e-11
2.80038e-11
3.606e-14
-2.5161e-13
2.70623e-13
-3.10527e-11
0
4.47065e-13
6.90462e-12
-3.05279e-11
2.83739e-11
2.35297e-13
2.82607e-11
1.2865e-13
4.46323e-15
1.62931e-13
-3.29346e-11
9.87249e-14
-2.9821e-13
-9.19609e-13
2.92764e-13
-2.92877e-13
6.24331e-11
5.76162e-11
-7.71128e-11
-5.7049e-11
-9.89393e-13
2.96862e-11
-8.56952e-13
0
1.65992e-12
2.72045e-10
5.90946e-13
-1.17769e-12
-2.15533e-12
1.66896e-12
-3.03053e-11
6.30365e-14
7.87447e-11
-1.72087e-12
-1.67232e-13
-8.47417e-14
4.08563e-11
-7.96551e-11
-7.97366e-13
-1.42107e-12
3.74159e-11
-1.24315e-13
2.93096e-13
2.36375e-12
7.14375e-11
-9.33248e-13
-6.27551e-12
-8.10072e-11
1.53671e-10
1.28364e-12
1.10777e-11
-6.68995e-14
7.05227e-11
1.54196e-10
-7.27641e-11
3.06141e-11
9.8848e-13
0
6.61862e-11
-7.14095e-13
-7.9842e-11
-2.00847e-12
8.22692e-11
-1.81087e-12
6.02849e-13
6.15613e-11
1.49017e-13
4.55052e-13
-2.81306e-11
-7.56996e-13
-4.04e-11
8.1827e-13
-6.56425e-12
-3.96627e-11
2.35512e-13
6.35138e-13
2.87831e-11
-6.45418e-13
-1.18066e-13
2.84032e-13
-2.19298e-13
-3.28135e-11
1.87796e-13
4.6563e-14
-1.46395e-13
-4.0434e-11
3.43634e-11
-3.87811e-11
6.94679e-11
-2.92751e-13
-6.06205e-11
-1.17229e-12
5.84882e-13
-6.50192e-13
-2.98835e-13
-8.15718e-11
3.57536e-14
5.62935e-13
-6.13689e-13
1.3516e-10
1.50026e-13
0
1.76573e-12
-1.29496e-12
-1.73944e-12
-3.7042e-14
-5.12026e-11
0
-2.56233e-10
-3.02973e-13
-6.49107e-13
-1.5343e-12
5.62206e-11
1.50943e-10
-7.85187e-12
-2.63489e-13
1.15325e-13
0
1.37631e-10
-7.14678e-11
-2.75291e-11
6.30582e-14
0
1.76569e-12
-6.18738e-13
8.27786e-13
4.59169e-13
-7.05787e-11
-1.44183e-13
4.99511e-13
-3.75613e-11
-3.07576e-11
0
-4.22377e-11
-1.01554e-13
5.687e-11
-7.78114e-11
-7.59035e-11
-8.20535e-13
-3.31464e-12
-5.45099e-11
1.57872e-11
3.49571e-13
6.01732e-12
3.25108e-11
-2.70309e-11
4.986e-14
-3.12588e-13
2.26144e-13
6.45065e-11
1.10182e-13
0
-7.25824e-12
2.97796e-11
9.76991e-13
1.37105e-13
3.4306e-15
-3.88099e-11
-4.52096e-13
1.71545e-13
3.24083e-11
4.74059e-14
5.1652e-11
-6.9336e-11
6.92324e-11
6.10737e-11
-5.87659e-13
-5.86412e-13
8.73076e-13
-2.98995e-13
-7.5128e-14
-2.96957e-11
7.16326e-14
3.06436e-12
1.77919e-10
-5.87545e-13
1.50637e-10
1.52513e-10
1.12873e-10
-2.36011e-11
2.86338e-11
-2.88348e-11
-1.17359e-12
-6.34634e-11
-9.13151e-11
3.87008e-13
-4.19316e-11
-1.23604e-10
1.21023e-10
7.53183e-12
-3.73495e-11
-5.05329e-11
5.87665e-13
-5.8842e-13
-8.69761e-11
3.20372e-11
4.268e-11
8.50319e-12
2.63965e-11
-4.93555e-13
3.40301e-11
-9.67102e-13
-3.59904e-13
1.40125e-13
2.62097e-13
-3.32834e-12
-3.84848e-11
2.98972e-13
6.0334e-11
9.1866e-11
-5.74088e-11
7.99583e-11
7.64694e-11
8.68327e-11
6.5669e-11
-9.53537e-11
1.68698e-13
3.70666e-13
-2.33149e-12
-4.88494e-13
9.37542e-14
-1.3843e-13
3.14698e-13
-7.2073e-13
8.40156e-13
-7.46461e-13
-2.80546e-11
-5.24149e-11
-4.01188e-11
-8.24972e-14
-1.94736e-13
1.27542e-13
3.13409e-13
3.47133e-11
2.50494e-13
4.10329e-11
-1.5309e-14
-1.374e-11
-7.53096e-11
-6.79941e-11
5.65652e-11
8.93643e-13
1.48659e-12
-5.94261e-13
1.49546e-12
8.31718e-12
-9.22876e-15
-3.29435e-13
1.22409e-12
-1.3906e-10
-1.41466e-11
1.23486e-10
1.22187e-10
-3.16391e-10
2.15537e-11
2.8534e-11
1.89727e-11
1.18788e-12
-2.89404e-11
9.0951e-11
-5.77474e-13
1.72071e-12
6.34169e-11
1.26994e-10
6.01217e-13
3.65341e-11
6.74825e-13
2.9794e-13
1.59266e-10
1.59455e-11
1.52989e-13
5.35655e-13
-7.43422e-12
5.51699e-13
-8.45489e-11
-1.59224e-14
1.76756e-12
-8.91501e-13
-1.73856e-10
3.87361e-13
1.84765e-12
3.02019e-11
5.98091e-13
-1.1505e-10
-9.2557e-11
-8.10028e-11
7.94322e-11
1.28925e-11
-2.82612e-11
-6.33071e-11
-1.66168e-13
-1.64106e-11
-1.45435e-13
-2.50649e-14
-3.32619e-11
2.80831e-11
-3.89636e-13
2.90629e-11
-5.60818e-13
-3.37079e-11
0
1.48886e-13
2.53059e-13
-3.40566e-11
3.82084e-14
-4.44862e-12
-3.78331e-11
3.88677e-11
3.80298e-11
2.89811e-11
3.34758e-11
7.95047e-13
-6.13137e-11
1.75085e-10
-1.0158e-12
-5.66553e-11
5.46036e-11
-1.18587e-12
-7.41021e-12
-6.63266e-11
-3.56164e-11
4.35373e-14
5.94406e-13
2.458e-11
-1.17873e-12
-4.13644e-12
1.18216e-12
3.20331e-14
-1.66403e-10
2.93656e-12
-2.84995e-11
2.92653e-11
-4.40505e-13
-9.75953e-14
1.05779e-12
4.62875e-13
-2.0814e-11
-3.34736e-11
5.71361e-13
-4.18213e-13
-3.33606e-11
3.08531e-13
1.62325e-12
-1.18223e-12
-1.87135e-11
6.48191e-11
-1.97571e-11
2.11355e-12
0
-7.41366e-12
1.77789e-13
1.39251e-11
-1.45441e-11
-2.28034e-11
-1.03371e-12
-5.316e-13
1.88057e-11
-3.88122e-12
5.81331e-13
7.17212e-11
-3.20654e-11
6.65145e-13
-5.93058e-13
-1.06005e-10
7.90277e-11
-7.59518e-11
4.53945e-11
-3.97354e-11
5.76854e-13
8.32336e-11
-2.43876e-13
3.51794e-11
2.96454e-13
1.70541e-11
3.42397e-12
-1.8202e-10
-1.16408e-12
2.32662e-12
1.32871e-10
-2.01247e-13
1.01065e-12
3.811e-11
1.48713e-12
1.03108e-10
2.81282e-13
8.00701e-11
-7.86043e-11
-1.36274e-11
-6.03262e-11
0
3.48266e-11
-3.61888e-11
3.03207e-14
2.6794e-11
-1.30329e-13
3.26645e-11
5.16207e-14
5.44628e-13
-1.52924e-12
-3.87725e-11
2.0843e-12
2.96942e-11
5.26736e-11
4.0154e-11
-3.70046e-12
-1.11622e-13
0
-5.92067e-13
-3.447e-11
1.05764e-12
1.20653e-12
0
1.18094e-11
-4.55549e-11
1.0812e-13
-5.90751e-13
2.82217e-12
-9.95831e-12
6.79785e-12
-1.51218e-11
2.81875e-11
6.37132e-12
3.08344e-13
-5.89365e-13
-6.53124e-11
0
-8.55939e-13
-2.93793e-13
0
1.60312e-13
-2.87405e-11
-3.03433e-11
1.76619e-11
2.93731e-13
0
-7.29259e-11
7.54518e-11
5.80037e-11
-1.46492e-12
5.37353e-13
5.91981e-13
-1.4798e-13
-4.13259e-11
2.92061e-13
1.88898e-11
-9.60735e-12
1.15167e-13
-4.16629e-12
-1.02768e-13
-2.61911e-11
-3.61031e-11
-2.95962e-13
2.83928e-12
6.5644e-11
1.26404e-11
1.01339e-11
-1.99525e-11
-1.92286e-12
1.37216e-12
2.49812e-11
0
-5.92074e-13
8.47819e-12
8.70351e-11
-2.37798e-11
7.40844e-11
0
-1.24259e-12
-7.60561e-13
3.95605e-13
-4.44021e-13
2.73895e-11
2.95586e-13
5.84063e-11
-5.86546e-13
-4.19135e-14
-2.30407e-13
1.30469e-10
-8.14654e-11
-2.94933e-13
-1.5506e-12
-2.96747e-13
-1.57409e-11
-8.8635e-13
4.08032e-11
2.94883e-13
-3.55593e-11
6.4314e-11
-1.26477e-11
-1.40342e-11
4.45155e-13
3.15774e-13
-1.29392e-13
-3.48886e-13
0
-2.79443e-11
5.919e-13
-2.84157e-11
1.48151e-13
-5.93442e-13
4.4539e-13
-1.48202e-13
2.96244e-13
2.16096e-11
1.47935e-13
4.88148e-12
3.77187e-11
0
-6.74986e-11
-3.00688e-11
-3.40852e-11
-1.18496e-12
-3.64029e-11
4.00582e-11
2.80696e-11
-2.38572e-11
-3.53152e-11
4.62409e-11
1.24862e-11
5.00159e-11
3.52507e-11
-2.84172e-11
-1.47813e-13
-1.28724e-11
-1.40514e-11
1.47659e-13
1.43235e-11
-4.42581e-13
-1.13232e-11
-2.77867e-11
0
-2.85491e-11
-1.47732e-13
-1.73316e-12
-2.48861e-11
-2.00587e-11
-2.10949e-11
-4.65372e-12
-4.60678e-11
-1.47739e-13
3.32818e-11
5.91588e-13
-2.86615e-11
-2.06932e-11
0
3.8566e-11
5.08735e-11
1.08066e-11
1.16662e-11
-4.43309e-13
1.1832e-12
3.68263e-11
0
-2.30878e-11
-3.68187e-11
-2.95198e-11
7.41631e-13
-8.51191e-12
-7.60501e-12
-3.28049e-11
2.95807e-13
2.9585e-13
-7.59215e-11
-3.3059e-11
4.54619e-11
1.45125e-11
-3.85312e-11
-1.97602e-11
2.176e-11
-2.96935e-11
0
-3.43392e-11
8.45903e-12
9.77201e-12
-1.23501e-11
-9.45085e-12
-2.21514e-12
-1.34261e-11
1.35363e-11
-4.02656e-12
2.98999e-11
2.96229e-13
-3.72899e-11
-2.48966e-11
-2.79173e-11
3.99218e-11
3.62013e-11
0
3.94637e-11
4.24694e-11
-4.44366e-13
3.60096e-11
0
2.66411e-12
-1.47926e-13
-3.26892e-11
-3.20956e-11
-8.87535e-13
-3.50393e-11
8.32781e-11
-2.07477e-12
2.8574e-11
-5.9202e-13
1.47947e-13
4.14138e-12
-7.39478e-13
-1.47896e-13
1.4791e-13
-5.91807e-13
-5.92028e-13
-1.33246e-12
-3.74446e-11
-3.9203e-11
7.39324e-13
4.43494e-13
0
-3.41506e-11
1.47835e-13
1.47871e-13
2.91438e-11
0
-3.59495e-11
-3.19378e-11
-2.95575e-13
-2.49749e-11
-2.55735e-11
-6.54872e-11
1.47788e-13
6.54724e-11
2.95725e-13
0
2.89872e-11
-2.9859e-11
0
3.69551e-12
4.43772e-13
-4.31951e-11
0
2.95578e-13
-1.47829e-13
1.03529e-12
-3.60817e-11
4.18305e-11
-8.8674e-13
-2.95797e-13
-3.71615e-11
2.96117e-13
-1.4793e-13
-3.11919e-11
6.62293e-11
4.43658e-12
-1.47875e-13
3.53262e-11
3.59118e-11
2.95791e-13
1.48054e-13
0
2.66275e-11
-4.43485e-13
0
2.78029e-11
1.47893e-13
2.9562e-13
7.56472e-11
-1.47804e-13
0
-1.47931e-13
-2.82378e-11
-1.47787e-13
3.66624e-11
0
-2.94398e-11
-1.47854e-13
1.47768e-13
0
-3.84335e-11
-1.33045e-12
4.30069e-11
-7.38965e-13
-5.91476e-13
-2.95898e-13
0
1.47931e-13
-4.43568e-13
-3.19296e-11
0
1.47834e-13
-4.53838e-11
-4.43589e-13
-2.94397e-11
-4.44018e-13
0
4.4399e-13
4.43817e-13
1.47899e-13
-1.47888e-13
1.29569e-13
3.08742e-12
1.10749e-13
1.11035e-13
2.96102e-13
1.28734e-11
5.91782e-13
-1.80457e-11
1.47896e-13
1.331e-12
-5.91561e-13
0
2.95841e-11
8.87693e-13
1.47972e-13
-1.47943e-13
1.47914e-13
7.39417e-13
-2.79473e-11
3.13488e-11
-6.80216e-12
-7.54157e-12
-4.43667e-13
-4.43754e-13
0
2.89903e-11
-1.03515e-12
2.95708e-13
-2.85362e-11
-4.43625e-13
-3.65257e-11
-2.97205e-11
1.87785e-11
2.73588e-11
2.95828e-13
2.88374e-11
7.39291e-13
-2.95695e-13
3.65254e-11
1.87857e-11
3.99391e-12
4.58454e-12
3.66699e-11
-7.3935e-13
-7.39462e-13
-7.39363e-13
2.86835e-11
3.01626e-11
2.95813e-13
-7.11728e-11
-5.09029e-11
4.43772e-13
5.91512e-13
-4.43611e-13
-1.47885e-12
1.47872e-13
0
-2.95707e-13
4.43713e-13
0
-1.03582e-12
-2.95848e-13
-2.97235e-11
0
3.78588e-11
-1.47882e-13
3.79985e-11
2.91245e-11
1.47869e-13
4.11206e-11
3.84598e-11
7.64583e-11
-5.9145e-13
2.97222e-11
2.95791e-13
1.47907e-13
0
-2.95691e-13
3.59271e-11
-4.43613e-13
-4.0518e-11
-1.47862e-13
0
0
-3.00273e-11
-1.47939e-13
3.7421e-11
3.50468e-11
5.91452e-13
-4.05155e-11
-1.62656e-12
-5.9148e-13
1.47885e-13
-7.39588e-13
-3.69869e-12
1.47964e-13
0
1.4791e-12
-1.47889e-13
0
3.19614e-11
1.34941e-12
3.6239e-11
-4.54193e-11
-2.95943e-13
-1.73069e-11
1.03536e-12
1.47892e-13
-2.95763e-13
2.21818e-12
2.9576e-13
-2.9577e-13
5.91586e-13
0
1.47926e-13
3.80117e-11
3.94872e-11
-8.87275e-13
-7.39376e-13
3.12023e-11
2.72099e-11
-8.87279e-13
1.47885e-13
-2.91359e-11
2.95821e-13
2.88377e-11
3.10538e-11
-4.43609e-13
-3.25331e-12
2.5733e-11
-9.61307e-12
-2.98727e-11
-3.72654e-11
-4.4365e-13
2.95786e-13
2.07019e-12
4.43596e-13
-2.95742e-13
-1.47895e-13
4.03825e-11
4.30462e-11
0
-2.95768e-13
-8.87265e-13
-7.39405e-13
3.60786e-11
-4.43588e-13
7.39387e-13
2.95827e-13
2.81104e-12
-2.95908e-13
4.43779e-13
3.13536e-11
-2.78012e-11
-4.28842e-12
0
-3.57825e-11
2.95752e-13
4.43736e-13
-1.47949e-13
-1.47954e-13
-1.47926e-13