/*--------------------------------*- C++ -*----------------------------------*\
  =========                 |
  \\      /  F ield         | OpenFOAM: The Open Source CFD Toolbox
   \\    /   O peration     | Website:  https://openfoam.org
    \\  /    A nd           | Version:  10
     \\/     M anipulation  |
\*---------------------------------------------------------------------------*/
FoamFile
{
    format      ascii;
    class       volScalarField;
    location    "1.2";
    object      gradTx;
}
// * * * * * * * * * * * * * * * * * * * * * * * * * * * * * * * * * * * * * //

dimensions      [0 -1 0 1 0 0 0];

internalField   nonuniform List<scalar> 
47104
(
1.3959e-13
-6.19299e-15
5.86824e-13
5.51545e-13
-1.94693e-13
1.55231e-13
2.57363e-13
5.25537e-14
-2.57264e-15
-1.39584e-13
9.32208e-15
-9.24761e-14
2.14807e-13
-4.84098e-13
1.36972e-14
3.06591e-11
3.65018e-13
-3.00059e-11
-2.31578e-11
-2.26662e-11
-1.39536e-13
9.21406e-14
5.2736e-12
1.93937e-14
-5.90722e-12
9.12798e-14
6.82588e-13
2.23745e-13
6.41274e-13
2.88441e-13
-2.08269e-11
-2.11633e-11
-6.4076e-13
2.04979e-13
-7.86224e-14
6.92643e-14
-5.54172e-13
-1.01499e-13
6.84332e-13
1.57889e-13
1.4855e-13
5.42096e-14
-1.03967e-13
-1.50007e-13
-1.59357e-14
-2.59367e-13
3.5623e-14
-1.49982e-13
1.7877e-13
0
0
8.53243e-13
1.64541e-13
-8.74391e-14
1.43353e-13
3.43714e-12
3.80719e-13
1.88122e-11
-3.78001e-13
-2.3173e-11
2.06619e-11
3.94807e-13
-2.07235e-11
5.42739e-13
-6.33389e-13
6.67922e-15
4.82651e-13
2.96468e-12
-2.48492e-13
-2.8161e-12
4.56183e-13
-2.05149e-13
-5.06817e-13
-3.06629e-11
-9.08611e-14
3.0832e-11
-1.40107e-13
-3.97398e-14
7.04264e-13
7.35228e-13
-1.39766e-13
1.72958e-13
5.56994e-13
-1.59196e-13
-5.49235e-13
1.04087e-13
2.34359e-11
-1.65265e-13
9.92359e-13
2.44375e-11
1.39609e-13
4.66196e-13
-1.21779e-13
-3.50837e-13
-2.29245e-11
-7.6879e-15
2.2272e-11
-2.13427e-11
6.0809e-13
2.11808e-11
-1.49214e-13
-2.17131e-13
-2.76723e-12
7.47592e-14
2.82477e-12
-2.09818e-14
1.11045e-13
-2.01424e-13
1.08216e-13
4.47613e-13
-1.49336e-13
-3.85042e-11
-1.94376e-11
3.88389e-11
1.94179e-11
3.1039e-11
2.05164e-11
-5.60743e-11
-2.06549e-11
2.49377e-11
1.23924e-11
2.06496e-11
-1.70252e-11
1.16772e-12
-3.50106e-13
-4.93961e-11
9.48425e-11
-4.56847e-11
0
1.493e-13
1.49207e-13
-1.02434e-11
3.86902e-13
4.57472e-15
-5.92603e-11
5.95361e-11
-3.18502e-14
-3.51978e-11
-2.46361e-11
-1.34281e-12
-1.49167e-13
8.86198e-12
2.1768e-12
-2.34314e-12
6.24371e-13
-3.2881e-11
3.23812e-11
-6.41436e-13
-2.52765e-11
-2.52079e-11
2.1183e-11
2.1651e-11
5.59002e-13
6.62395e-13
1.07255e-11
-1.0419e-11
5.55708e-11
-5.47912e-11
-3.09606e-11
5.66822e-12
5.19329e-11
3.73887e-12
-3.95941e-11
-4.57455e-11
4.67196e-11
3.37499e-14
2.39436e-13
5.72125e-11
-4.63586e-12
4.70026e-11
0
-2.61892e-13
6.30405e-11
-6.25639e-11
5.40627e-13
9.52966e-14
-1.40128e-12
2.58775e-13
9.27771e-12
0
2.13579e-11
9.89379e-12
-2.15768e-11
-9.6176e-12
-6.34701e-13
-1.8021e-13
-6.57084e-13
4.79578e-13
-2.04632e-11
-2.15056e-11
-1.4921e-13
2.90233e-13
-4.52046e-13
4.39411e-13
-3.27578e-11
-2.19279e-11
3.2908e-11
2.17795e-11
-2.29462e-13
-2.98422e-13
1.49189e-13
2.78304e-11
2.09036e-11
-2.79579e-11
-2.05251e-11
-6.69229e-14
-1.48531e-13
1.49571e-13
-1.63189e-13
0
1.68656e-11
-3.13917e-11
6.06053e-12
-5.30769e-11
5.33778e-11
-5.92946e-13
-7.14514e-13
5.19459e-13
1.77182e-13
-1.73118e-11
1.68487e-11
6.97998e-12
1.62354e-12
-3.86919e-12
-7.13476e-13
-1.21198e-13
7.80161e-12
-2.60007e-12
9.05726e-13
9.24399e-12
-1.53448e-11
5.55866e-11
1.25413e-09
-3.04116e-07
4.07464e-09
-7.58844e-10
-1.67426e-08
8.19879e-08
-1.88259e-14
-8.34251e-12
-2.98048e-13
3.61196e-13
2.12386e-09
-2.64667e-07
2.18133e-07
-4.90565e-08
-6.27929e-07
1.42421e-07
-6.46524e-11
0
1.49037e-13
1.13052e-13
2.10528e-09
-2.68061e-07
2.31081e-07
-5.22596e-08
-6.56443e-07
1.45957e-07
5.425e-13
-8.0472e-12
-9.98412e-12
2.00133e-11
2.16716e-09
-2.23862e-07
1.78291e-07
-3.96991e-08
-5.28502e-07
1.30364e-07
-1.19716e-13
0
-6.71209e-12
1.17057e-11
-1.72417e-10
-3.47212e-08
-7.3682e-09
1.74144e-09
2.01896e-08
-4.30122e-09
6.32867e-11
-4.47381e-13
1.49293e-13
1.90947e-11
-1.82017e-11
-5.99817e-11
5.87308e-11
1.48551e-11
-1.46683e-11
3.05321e-14
-1.02004e-12
1.68679e-11
-2.52121e-11
2.9342e-11
2.50169e-11
-2.96313e-11
4.54244e-13
-6.66557e-13
-4.1339e-14
2.93841e-13
1.26332e-13
0
-2.26251e-11
-2.11556e-11
-2.31594e-13
-1.27876e-12
-3.09717e-11
-2.07451e-13
3.41229e-11
2.01864e-15
-3.36067e-12
-1.48823e-13
1.48615e-13
4.46779e-14
-8.28941e-12
-2.70643e-11
-5.72603e-12
2.13867e-11
-4.77967e-12
5.9773e-11
-8.06916e-13
-1.8277e-11
3.1003e-12
2.61567e-10
1.00554e-08
-7.59769e-07
-4.70005e-09
-1.02947e-09
2.20126e-08
1.97029e-06
-1.09103e-07
7.08606e-12
-4.75274e-11
6.67063e-09
0.000196949
-1.20793
-0.0102437
0.000655114
0.0276425
1.11117
1.26466e-05
1.0268e-11
-4.556e-11
4.76875e-09
0.00020377
-1.92659
-0.0344183
0.00204047
0.0976775
1.39666
1.16972e-05
4.23349e-11
-2.0951e-11
4.60728e-09
0.000204798
-1.93743
-0.0358721
0.00214162
0.100281
1.40186
1.16613e-05
5.66926e-11
-3.56564e-11
5.41708e-09
0.000202742
-1.91062
-0.0327087
0.00192613
0.0940185
1.3849
1.18412e-05
4.85579e-11
-2.70277e-11
9.05322e-09
0.000196731
0.290753
-0.034453
-0.0370962
-0.0389522
-0.328503
9.33317e-06
6.4969e-12
1.48658e-13
4.93963e-13
8.53311e-09
6.62652e-08
3.91411e-09
-9.55545e-10
-1.60188e-08
-1.3775e-07
-2.99994e-10
7.43195e-12
-5.95366e-13
2.44252e-11
5.29618e-13
-2.38079e-12
2.1861e-13
-2.2049e-11
-3.07137e-13
2.65241e-11
1.30589e-13
-2.63465e-11
-7.43326e-13
-2.85815e-13
2.39364e-13
1.80906e-12
8.02008e-13
-5.35239e-13
-2.43579e-11
5.41043e-13
2.28472e-11
0
4.39237e-11
3.44725e-11
1.88854e-11
1.16243e-08
3.81886e-09
-6.48117e-10
-9.31832e-09
1.01534e-09
4.09245e-11
-3.85748e-12
5.28935e-11
-6.12844e-10
7.47194e-07
0.037142
0.00102108
0.000240255
-0.00163411
0.00188771
-2.35436e-07
-5.36258e-11
-2.42682e-10
-8.65111e-07
-1.41986
0.00223173
2.36868e-10
-3.00711e-10
-1.37727e-06
-1.71814
0.00267096
3.06038e-10
-3.05817e-10
-1.34562e-06
-1.7213
0.00267734
3.52162e-10
-2.688e-10
-1.43024e-06
-1.71293
0.00264602
2.45447e-10
1.49937e-11
1.16031e-07
-0.0113555
-0.00011692
3.96745e-12
-8.01491e-12
4.34041e-14
1.11657e-07
3.98058e-05
2.71929e-06
-5.63186e-07
-1.34055e-05
4.8264e-06
6.85801e-10
-7.71748e-12
-1.4865e-13
5.89785e-13
2.00842e-15
-2.02236e-11
4.9776e-13
5.26994e-11
-2.13084e-12
-4.85064e-12
1.93834e-14
-2.76523e-11
2.08189e-12
-2.12799e-14
-2.25023e-12
1.6039e-12
7.88661e-13
-8.76994e-13
-1.7941e-12
-2.18429e-13
2.19987e-13
4.46039e-13
2.07957e-11
9.96751e-11
-9.50096e-12
1.27191e-08
5.1934e-09
-7.93151e-10
-1.25234e-08
1.39708e-09
6.55398e-12
-9.20773e-12
3.23483e-12
-9.23427e-10
4.87969e-07
0.0466876
0.00129316
0.000188916
-0.00240439
0.00198391
-1.74846e-07
2.67584e-11
-2.27131e-10
-7.68956e-07
-1.46
0.00228955
1.99118e-10
-3.01364e-10
-1.44617e-06
-1.7939
0.00285445
2.96712e-10
-2.86252e-10
-1.40513e-06
-1.79835
0.00286405
2.84306e-10
-2.45695e-10
-1.42348e-06
-1.78129
0.00281447
2.62941e-10
-1.50056e-11
3.4523e-08
-0.0827467
-0.000126036
-1.22046e-11
-1.27762e-11
-1.29574e-11
1.18603e-07
4.69488e-05
3.70538e-06
-8.11173e-07
-2.11411e-05
2.11499e-06
7.16551e-10
1.67872e-11
1.48683e-13
8.5895e-14
2.46158e-11
1.84185e-12
-2.41402e-11
-7.96976e-13
-1.78681e-12
2.46692e-11
-1.17852e-13
-2.46859e-11
-1.63671e-12
-6.70571e-13
5.19131e-13
1.06346e-12
8.08585e-13
-5.52252e-13
-1.72927e-12
-3.32145e-14
1.90693e-13
-1.48767e-13
5.94701e-12
-8.04667e-11
1.17249e-10
1.23859e-08
5.37059e-09
-8.2379e-10
-1.2673e-08
1.38293e-09
-2.78441e-13
3.12141e-11
5.4902e-11
-9.25376e-10
4.79253e-07
0.0468917
0.00127096
0.000130894
-0.00249591
0.00199355
-1.69254e-07
-2.23665e-11
-2.21524e-10
-7.39696e-07
-1.46115
0.00229506
2.16508e-10
-2.87811e-10
-1.40214e-06
-1.79703
0.00286507
2.60317e-10
-2.40598e-10
-1.35277e-06
-1.802
0.00287513
2.83568e-10
-2.09093e-10
-1.49171e-06
-1.79038
0.00282395
2.11293e-10
1.23683e-11
6.72799e-08
-0.00990613
-0.000126678
4.19433e-11
-1.07057e-11
4.63207e-11
1.19243e-07
4.74472e-05
3.85097e-06
-6.90074e-07
-1.58565e-05
5.59528e-06
9.72242e-10
1.36795e-11
-2.84141e-11
-2.15708e-13
5.211e-12
2.53083e-11
4.7024e-11
-2.45374e-11
-2.8575e-11
3.8518e-13
3.38298e-12
-1.48797e-13
-4.36156e-11
-8.76032e-14
4.33854e-11
2.01704e-12
2.62298e-11
-2.2359e-11
-2.67658e-11
2.16219e-11
5.66596e-13
5.9536e-13
2.975e-13
-2.24436e-12
4.34774e-11
1.23149e-08
5.3783e-09
-8.46512e-10
-1.26469e-08
1.38249e-09
5.82185e-14
1.04102e-12
-3.53529e-12
-7.03225e-10
4.91409e-07
0.0469279
0.00126815
0.000123042
-0.00250687
0.00199295
-1.76911e-07
-2.06124e-12
-2.21013e-10
-7.7646e-07
0.121893
0.00229598
2.43652e-10
-2.87748e-10
-1.40488e-06
-1.79494
0.0028661
2.86647e-10
-2.81083e-10
-1.35038e-06
-1.80227
0.00287617
2.79139e-10
-1.85973e-10
-1.48669e-06
-1.79104
0.00282489
2.21882e-10
2.06261e-11
6.73958e-08
-0.00989661
-0.000126754
-6.77358e-12
-1.78526e-11
-5.15365e-11
1.19374e-07
4.74685e-05
3.85241e-06
-7.49814e-07
-1.7134e-05
5.43843e-06
9.15875e-10
2.97536e-13
0
-2.27242e-11
-2.40958e-13
4.98197e-11
7.59846e-13
-2.59033e-11
-2.29513e-12
6.44309e-14
-2.24453e-14
0
2.38246e-12
-3.44291e-13
-3.21855e-12
-3.34863e-12
4.02736e-13
4.18666e-12
-2.04821e-12
-9.65205e-14
8.58616e-13
1.48897e-13
-1.65157e-11
7.89583e-14
6.96967e-11
1.24687e-08
5.25286e-09
-8.01745e-10
-1.26295e-08
1.39952e-09
1.14324e-10
-7.14127e-12
-1.07587e-11
1.45285e-10
5.17861e-07
0.0468192
0.00126452
0.000142238
-0.00246448
0.00198851
-1.86e-07
-1.97413e-11
-2.28952e-10
-8.70002e-07
0.262498
0.00229412
2.20244e-10
-3.02506e-10
-1.44201e-06
-1.79375
0.00285944
2.94467e-10
-3.20015e-10
-1.38859e-06
-1.80081
0.00286911
3.19941e-10
-2.38118e-10
-1.51618e-06
-1.7898
0.00281925
2.34793e-10
6.04415e-12
6.73271e-08
-0.00987997
-0.000126583
-2.93211e-11
8.18552e-12
-2.83673e-13
1.18977e-07
4.69687e-05
3.7092e-06
-8.0632e-07
-2.11225e-05
2.10412e-06
8.22782e-10
-1.48823e-13
-1.48892e-13
-4.4454e-14
4.49992e-13
-3.51202e-12
3.90012e-14
4.1135e-12
-2.27955e-12
2.64505e-13
-4.73197e-13
-2.9785e-13
-1.48928e-13
-5.66922e-14
-2.65929e-11
-8.9763e-14
2.66715e-11
2.22921e-14
-2.91226e-13
2.96471e-11
-1.21936e-13
-2.97877e-11
3.22923e-11
4.00091e-11
2.73985e-11
6.98195e-09
1.97358e-09
-2.93327e-10
-4.87009e-09
1.00445e-09
4.42715e-11
1.7859e-12
4.09953e-11
-7.58771e-10
5.35195e-07
0.0394154
0.000987225
0.000134297
-0.00184661
0.00198502
-2.15639e-07
3.2586e-11
1.31166e-12
-5.2793e-07
-1.43537
0.00199732
6.45454e-11
-2.93253e-11
-6.06718e-07
-1.74378
0.00225554
3.67204e-11
6.38817e-12
-5.63724e-07
-1.74768
0.00226009
3.64309e-11
-4.60677e-11
-7.11964e-07
-1.73921
0.00224532
4.21102e-11
-2.37529e-11
5.74129e-08
-0.0110668
-0.00010925
4.42408e-13
-1.02719e-11
-7.1807e-13
1.05439e-07
3.32531e-05
2.32018e-06
-4.1728e-07
-9.66265e-06
4.23609e-06
8.31562e-10
4.466e-13
-1.4893e-13
2.42338e-12
2.98949e-11
-1.73455e-12
-2.97464e-11
-3.41367e-11
-3.01654e-11
3.44403e-11
3.041e-11
1.48962e-13
-1.48929e-13
-1.83452e-13
2.22323e-11
-4.06963e-13
-1.84843e-12
6.06754e-13
-2.10256e-11
4.4104e-13
9.31419e-13
-4.46866e-13
1.48808e-13
-6.10581e-13
-4.64365e-11
-7.77483e-12
-1.07618e-11
1.17786e-12
2.18029e-11
-8.2479e-12
9.86118e-11
-1.19071e-11
-9.14285e-12
-8.31431e-11
-5.13685e-07
7.52992e-06
2.14352e-07
-3.99378e-08
-4.20165e-07
-3.23233e-05
8.69888e-08
-7.07775e-12
4.37226e-13
3.65649e-09
-0.00103687
-3.23726e-06
2.9141e-13
-7.84076e-12
3.77947e-09
-0.0010692
-3.39358e-06
2.67066e-11
1.45216e-13
3.75287e-09
-0.00104808
-3.40456e-06
1.4515e-13
3.52841e-11
3.75091e-09
-0.00106803
-3.3568e-06
-4.4736e-11
0
2.70715e-09
-0.000963447
-1.80975e-06
8.84879e-12
-9.08213e-12
4.06094e-12
3.11024e-09
-3.04455e-08
-2.31395e-09
4.31677e-10
8.23043e-09
5.03298e-08
2.69072e-11
-1.48875e-13
4.46835e-13
-5.75559e-13
2.65635e-11
-1.9748e-11
-2.70007e-11
2.08392e-11
-1.0761e-13
-8.03561e-14
6.96632e-14
-1.48971e-13
-1.08708e-11
-3.11573e-11
-2.05663e-11
3.30687e-13
3.69065e-13
-1.07323e-12
-7.73087e-13
1.20035e-13
1.4737e-14
0
-5.17782e-11
-3.43151e-11
4.31843e-11
-4.30001e-11
4.29856e-11
-4.35658e-11
-4.45702e-11
4.47154e-11
2.03206e-13
-6.99457e-12
-1.47353e-13
-5.05183e-11
-5.2545e-11
-1.05896e-10
1.73519e-12
-1.20328e-10
-1.18096e-12
1.49175e-12
7.48926e-11
-4.33192e-11
1.00341e-11
6.74604e-11
-8.94625e-11
-9.43848e-13
0
5.79035e-13
3.00052e-13
-3.8275e-11
-3.6573e-13
0
-9.98942e-12
2.02531e-11
1.04724e-13
8.84414e-11
-1.57754e-11
1.36748e-11
4.19365e-12
-5.70625e-12
-3.64231e-13
-2.82122e-11
3.17007e-11
3.08149e-11
1.43545e-13
1.24294e-12
-4.68689e-11
1.48876e-13
-4.37038e-13
7.19429e-13
-2.99877e-11
2.95919e-11
-4.65518e-11
4.68833e-11
-5.15094e-11
5.41803e-11
1.99463e-11
-2.57663e-11
-3.35098e-11
5.43402e-12
3.37744e-11
2.02095e-11
1.0743e-14
-3.01345e-11
-2.11753e-11
3.04131e-11
2.17479e-11
-2.68024e-11
2.19682e-11
2.6904e-11
-4.82369e-11
-7.50333e-14
1.63281e-11
3.80766e-13
9.59473e-12
-1.4342e-13
2.97875e-13
7.88529e-12
-6.4283e-11
4.88246e-11
1.99273e-12
-1.95626e-12
-6.00665e-11
5.95484e-11
-1.7651e-12
4.08425e-13
-4.43438e-11
1.4729e-13
3.44441e-13
-2.60682e-13
-5.79757e-13
-5.8972e-13
7.48187e-13
1.26364e-12
8.67458e-11
-7.98636e-12
-5.02247e-11
-1.45264e-13
-6.77199e-11
9.20381e-11
4.57798e-12
-2.7743e-11
-4.46636e-11
-4.52146e-11
-4.17535e-14
-7.09684e-11
1.30075e-12
1.44554e-13
-5.14599e-11
6.91626e-11
-9.90561e-12
-3.61347e-12
-3.34194e-11
-5.9375e-11
3.14059e-11
-2.28159e-11
-4.01033e-11
1.62091e-12
-4.1125e-11
8.87152e-11
-8.97295e-11
1.47352e-13
1.78617e-11
9.7251e-12
1.55898e-12
1.57239e-11
-1.67223e-13
-5.54394e-11
-5.18061e-12
5.85958e-12
5.43531e-11
-3.48282e-11
2.97845e-13
3.02649e-13
6.95045e-13
3.78181e-13
-1.28741e-12
-7.07203e-13
2.62067e-11
-2.2762e-13
-2.63453e-11
8.93643e-13
-5.9558e-13
1.70599e-13
2.53813e-13
-2.36104e-13
-1.87635e-13
2.12028e-11
-2.2149e-11
-2.11399e-11
2.22962e-11
0
1.4877e-13
-2.38324e-14
5.95492e-13
4.63818e-11
-1.031e-10
5.70229e-11
6.67792e-13
2.94211e-13
2.90412e-13
-7.43998e-13
-1.04565e-11
-6.91856e-13
-3.5801e-11
1.23756e-10
1.01462e-10
-5.88521e-13
-1.13117e-10
1.92185e-12
7.91579e-13
1.47274e-13
3.00636e-11
2.1528e-11
-3.78199e-11
-2.68951e-12
-5.40241e-11
-8.23661e-12
-9.56655e-13
4.59434e-13
2.17624e-11
-3.12109e-11
-7.22565e-13
6.54879e-13
3.25141e-11
5.8731e-13
-1.30052e-12
6.39224e-12
-1.96876e-11
-3.7562e-11
6.26539e-11
-7.84392e-12
4.16949e-11
7.50985e-11
-1.45166e-10
1.13189e-13
1.47319e-11
0
-7.84729e-15
-9.06107e-13
4.15479e-11
2.70264e-11
-6.83935e-11
4.1418e-11
-4.1291e-11
-5.89782e-13
-4.8221e-11
-1.4891e-13
3.33522e-11
3.16833e-11
-6.47394e-11
-3.09788e-11
3.10214e-11
-1.29359e-13
3.127e-13
-1.04365e-12
-1.04252e-12
5.95574e-13
7.47231e-13
-2.14125e-13
2.61702e-13
-1.27068e-15
-5.20944e-14
-5.33465e-14
-1.11453e-11
-6.17883e-12
5.21263e-12
1.01156e-11
-4.39056e-11
4.33651e-11
-1.05796e-12
-4.3602e-13
1.22434e-14
2.44973e-13
2.94195e-13
6.25847e-11
-9.96966e-12
-1.32562e-12
-3.18127e-13
-3.27511e-11
1.28123e-10
-1.05836e-12
-9.70832e-13
1.29502e-12
7.97085e-11
-4.51765e-11
-1.38452e-11
-4.63457e-11
1.67506e-11
-7.19869e-11
1.45346e-13
-1.11856e-11
-2.86227e-11
-2.70717e-11
1.00507e-12
-1.85335e-11
7.51673e-12
-1.44571e-12
3.145e-14
3.86948e-12
6.67902e-12
-5.7823e-13
0
-7.48264e-15
-1.28716e-10
-1.42962e-11
7.99053e-12
-1.47359e-13
-1.67349e-11
4.10103e-11
-2.10045e-11
-2.50437e-12
4.46455e-13
2.74239e-13
4.13898e-11
1.56804e-11
-5.79531e-11
-2.84263e-13
-1.48733e-13
2.69477e-12
2.08812e-13
3.86957e-12
1.4891e-13
1.42527e-13
8.3422e-15
1.20723e-13
-1.22173e-13
8.93547e-14
-4.82338e-14
1.60813e-13
-2.97508e-11
-2.97869e-11
0
2.19879e-13
-3.42015e-13
1.29343e-14
2.19263e-13
-9.27772e-14
6.64843e-14
5.52678e-14
5.47975e-14
1.48946e-13
-1.48766e-13
3.70555e-13
-3.03269e-13
1.10325e-12
5.09716e-13
4.14117e-13
1.18038e-12
-8.82347e-13
1.02603e-13
-7.44064e-12
1.47355e-13
-1.75815e-11
1.19587e-13
3.47651e-12
3.01248e-12
-1.28082e-10
-8.50568e-11
8.72856e-13
2.3632e-11
-5.89439e-12
5.16434e-11
1.04032e-11
1.52125e-12
5.80728e-13
-3.41827e-11
9.12341e-12
-4.78327e-11
1.99068e-11
-6.73007e-11
1.15848e-11
-4.34478e-13
5.73936e-11
-7.67971e-11
-6.14901e-11
5.06842e-12
-1.09132e-11
3.88889e-11
-7.00289e-11
-1.7486e-12
-7.41852e-12
4.37815e-11
6.2859e-11
-3.42237e-11
-5.93788e-11
7.22129e-12
-1.63712e-12
-9.10267e-12
1.0264e-11
-2.83588e-13
2.51321e-13
-5.65417e-14
5.67345e-11
1.28008e-13
-6.15273e-12
-1.20561e-11
-1.48925e-13
-2.58881e-14
4.46656e-13
-2.24737e-11
-2.42017e-11
2.31706e-11
2.33104e-11
-7.94047e-13
-3.04462e-11
-3.11308e-11
-2.97865e-13
1.74728e-13
2.77733e-13
-1.47819e-13
-1.50453e-13
-1.91188e-13
9.31085e-14
2.73928e-11
-2.92515e-13
-2.71132e-11
4.22624e-11
-1.17689e-11
4.55182e-11
6.07701e-13
3.0654e-13
-5.27532e-13
-1.29828e-13
7.313e-14
2.06726e-13
7.44283e-13
3.83427e-12
3.93303e-12
-1.01293e-12
1.50433e-12
-7.11282e-13
1.79486e-12
1.91373e-10
5.54148e-11
0
-5.89987e-13
-1.31198e-12
-6.83392e-11
1.39435e-10
5.75509e-12
0
-1.16181e-12
-1.39592e-11
-1.32488e-10
-3.68492e-13
8.42278e-12
4.35701e-13
1.22016e-12
-5.45248e-12
-1.77189e-12
4.35664e-13
0
-4.70402e-11
6.42611e-11
5.65266e-12
1.45769e-13
0
-2.41344e-13
7.80857e-11
-1.86274e-11
1.47494e-13
-8.18843e-12
-8.06261e-13
-6.52957e-12
-1.30939e-11
4.30724e-11
-4.30115e-11
-5.10727e-13
5.87592e-11
-6.85747e-11
2.72457e-11
2.72597e-11
2.32063e-13
-4.75199e-11
-8.27078e-14
2.00797e-11
-1.92863e-13
9.47118e-12
-1.07153e-13
-9.93012e-12
-2.97966e-13
0
-5.02902e-13
3.8012e-14
1.05613e-13
9.89552e-14
9.06659e-15
-4.85478e-12
-5.474e-15
6.13198e-13
-4.46957e-12
-3.15546e-11
-3.07716e-11
3.2762e-11
-3.36533e-11
6.67906e-11
-6.67635e-11
-2.70177e-13
-1.1782e-12
5.08073e-13
8.3369e-12
7.22652e-12
-2.26264e-13
5.25379e-13
8.36589e-13
-3.67722e-13
4.78336e-13
5.44378e-11
1.96877e-12
-4.25945e-11
9.14352e-12
-3.80207e-11
-9.54259e-11
3.27345e-11
7.29413e-14
2.76742e-12
8.26813e-12
-1.45473e-11
3.73866e-11
2.2112e-13
1.45046e-11
1.45061e-13
5.505e-11
-6.83113e-11
4.8212e-11
4.65605e-11
7.28426e-13
6.60427e-13
4.89527e-11
5.11756e-11
-1.99547e-11
-1.91767e-12
-4.10405e-11
2.95592e-11
-3.61329e-12
-5.89946e-13
-1.31037e-11
-4.40831e-13
-7.11088e-13
-4.84958e-11
4.91993e-11
-9.76398e-13
2.00022e-12
-4.50769e-11
-1.77082e-11
1.1466e-11
-2.54754e-11
-2.00844e-11
2.54549e-11
1.98909e-11
-8.21525e-14
2.6388e-13
2.09364e-13
1.22413e-13
2.1166e-13
-4.47009e-13
0
6.52254e-13
2.10718e-13
-3.46062e-13
4.29895e-13
-2.07117e-11
2.06123e-11
2.06354e-11
-2.14612e-11
1.48972e-13
-5.98281e-11
-8.48605e-12
-8.84803e-11
-2.33524e-11
6.80453e-11
-5.48466e-11
5.58193e-11
2.65868e-13
-1.49405e-11
0
-1.47387e-13
3.87485e-13
-1.88558e-12
1.73739e-12
1.35472e-13
-8.27096e-11
-2.91586e-11
8.60179e-11
-1.93446e-13
5.89419e-13
7.27006e-12
-4.59526e-11
8.89602e-12
7.95895e-11
-1.90427e-11
-7.66788e-12
9.38995e-13
-1.11302e-10
-5.83069e-11
9.83722e-12
3.34221e-11
3.32199e-11
1.89409e-12
-1.6344e-11
6.51013e-12
-7.85285e-12
1.58103e-11
-5.54214e-11
-1.62485e-11
-1.59913e-11
2.16704e-11
4.38273e-11
4.027e-12
-1.73204e-11
-5.58577e-11
-1.60784e-11
4.15649e-11
2.56671e-11
-4.3775e-12
-1.84172e-11
-4.42093e-11
5.60282e-11
-1.11202e-11
-4.89946e-11
-4.01998e-11
1.48969e-13
-1.71656e-13
-3.05721e-11
-4.98547e-13
3.04717e-11
1.19374e-13
-6.41639e-14
8.05884e-14
6.53175e-14
1.48999e-13
0
2.30196e-11
-2.17482e-11
-2.2998e-11
3.40105e-13
-4.06624e-14
2.16104e-11
1.34425e-13
-1.16526e-14
1.48977e-13
1.4883e-12
-8.95012e-14
-5.95566e-13
4.78856e-13
-2.33459e-13
-1.55862e-13
-4.00534e-13
4.04065e-11
-4.11193e-11
5.95317e-13
6.18848e-12
-1.4018e-11
1.24952e-10
2.3194e-12
5.89797e-13
2.43169e-12
1.48806e-13
8.67798e-11
1.73173e-11
4.96465e-11
-9.59056e-12
2.20392e-13
3.72436e-11
4.86968e-11
-1.16225e-12
9.9751e-12
-5.5979e-11
7.95554e-11
1.34055e-11
6.64956e-12
-7.37341e-12
-1.31215e-12
3.28883e-12
1.80547e-11
-8.52939e-12
4.60768e-11
3.68631e-11
4.42399e-11
5.37545e-11
-5.31838e-11
-2.94798e-13
6.92746e-12
-1.06471e-11
2.20286e-11
-2.78522e-11
2.97739e-13
8.79863e-14
6.16291e-11
-6.19217e-11
-5.30966e-11
5.29734e-11
-1.31071e-13
0
-1.74783e-13
8.48708e-12
-7.44865e-13
1.08861e-13
1.20074e-12
3.00192e-11
-8.42736e-13
-2.49963e-11
3.04148e-11
-5.53026e-12
-3.02578e-11
1.49011e-13
2.25023e-11
2.20458e-11
-7.11689e-13
9.93827e-14
2.47648e-11
-1.27139e-15
-2.46435e-11
4.80877e-14
-2.59493e-13
0
3.46907e-11
-1.07929e-11
4.52888e-11
9.02826e-14
2.10233e-13
-1.4294e-12
6.49663e-13
0
-3.34008e-11
4.16849e-11
2.94799e-13
-8.80355e-11
1.20979e-10
5.81139e-13
1.36853e-10
9.60462e-11
-1.21094e-10
-6.30001e-13
-5.46557e-11
7.22129e-12
-3.19839e-11
-3.42366e-11
5.17783e-12
2.76203e-11
8.72116e-13
1.44649e-13
-2.31363e-13
1.15297e-12
1.73627e-11
1.77907e-11
2.89316e-13
-5.88195e-14
-1.09866e-11
1.50461e-11
2.7052e-11
9.59774e-12
-1.1006e-12
4.19189e-12
4.47146e-11
-7.56218e-12
-4.42325e-13
-1.84231e-12
-1.43888e-12
-4.88964e-11
5.27889e-11
9.67886e-12
5.961e-11
-7.03888e-11
1.05612e-11
-6.82884e-11
2.09652e-11
-9.54037e-13
4.88993e-11
4.35925e-11
4.66238e-11
-1.49017e-13
-4.50371e-12
5.07762e-13
2.50493e-11
-2.93779e-13
-2.06319e-11
-1.11146e-13
-2.30689e-11
1.40001e-13
2.31052e-11
5.0706e-12
6.69487e-15
-5.74444e-12
-4.80976e-14
5.758e-13
9.25134e-14
1.11339e-13
-1.35143e-13
-2.43675e-11
-2.44576e-11
-4.61971e-12
3.04434e-13
2.97993e-13
4.15187e-13
-8.74546e-14
4.0627e-11
-4.10817e-11
5.39562e-11
-5.49699e-11
-7.00324e-12
-2.79017e-11
2.55614e-11
1.19756e-12
-9.06423e-11
-2.35867e-12
-1.94658e-12
-8.7102e-11
3.86552e-13
1.56065e-11
8.7079e-12
-1.4574e-13
3.6894e-14
-2.25965e-12
-1.47424e-11
0
-2.55325e-11
-5.6538e-11
2.62926e-13
1.74872e-11
2.95924e-11
0
4.43244e-11
-3.33362e-11
-1.78838e-11
6.67413e-12
4.25619e-11
4.24828e-11
8.74727e-13
1.77982e-11
-3.33871e-11
1.47649e-13
-5.77932e-11
8.2847e-11
0
2.65835e-12
-3.27862e-12
-2.0283e-11
-4.49967e-11
4.34571e-11
-2.45558e-12
5.27319e-11
-5.0021e-11
1.46307e-12
4.28896e-13
6.9477e-11
0
-2.13843e-11
-3.60344e-14
2.1303e-11
-1.37258e-13
6.92658e-14
4.72083e-13
-1.87948e-13
-1.85668e-13
4.47521e-13
0
2.22152e-13
8.56759e-14
-2.52711e-13
1.09503e-13
4.35971e-14
-8.14893e-14
-1.02856e-13
-3.07752e-11
-3.05978e-11
1.14923e-11
-4.8138e-13
5.96371e-13
-3.87324e-13
-3.828e-14
-2.96224e-13
-9.70888e-13
3.64214e-13
-5.53337e-11
-2.37285e-11
4.44584e-13
6.48537e-12
-1.10362e-10
5.79647e-12
2.39085e-13
2.08754e-12
-1.1368e-12
-1.19325e-10
-8.34197e-11
1.18536e-12
2.8922e-11
-4.20894e-11
7.87165e-11
-3.49668e-11
0
-2.64941e-11
2.30547e-12
-3.21169e-12
-2.99493e-12
-1.02451e-11
5.85524e-13
6.70592e-13
4.64582e-11
2.6701e-11
-7.02598e-12
1.1746e-12
5.55276e-11
-7.36215e-11
3.78468e-11
-6.75388e-12
-9.33697e-12
-4.42604e-13
4.31898e-11
-5.89927e-11
7.11497e-12
4.01462e-11
-1.3599e-11
-1.08638e-11
5.21943e-11
1.10562e-14
3.18785e-13
2.03576e-13
-8.76535e-13
7.54555e-13
-9.70481e-12
-1.20883e-11
-1.189e-11
2.47605e-11
2.57577e-13
-2.46527e-11
-4.23844e-14
3.22617e-13
2.52872e-11
-3.89874e-13
-2.53797e-11
-2.98453e-13
2.26223e-11
1.74479e-13
-2.20091e-11
-1.20897e-14
-2.92265e-11
-2.19748e-13
2.89629e-11
3.79387e-13
0
1.49299e-13
7.02837e-13
-5.97851e-13
6.84302e-14
-2.05258e-13
1.29259e-13
-3.73389e-13
5.24621e-13
2.50578e-12
-8.06097e-12
6.5482e-12
-1.36868e-11
-2.87016e-11
3.68007e-13
-5.43941e-13
-3.72345e-13
-6.57939e-13
1.38307e-13
1.56665e-11
2.85689e-11
2.17906e-11
5.36094e-11
-1.33939e-10
2.00127e-11
2.96408e-13
6.96037e-12
4.29734e-13
-1.19753e-11
8.01325e-12
-1.79159e-11
4.99087e-11
3.24677e-11
-2.0977e-12
-1.0818e-11
3.87949e-11
1.37869e-11
-9.86123e-13
2.54343e-12
1.73379e-11
1.03756e-12
-1.27991e-11
2.80358e-11
-2.90319e-13
-3.56279e-12
-8.92995e-13
3.83651e-11
3.87001e-11
-2.32871e-13
-2.14182e-11
6.0123e-12
-1.78254e-13
-4.32055e-11
4.46004e-11
2.50237e-14
-3.43447e-11
-1.49187e-13
-2.29589e-11
3.7779e-14
2.27534e-11
1.48017e-13
4.83496e-14
1.34508e-13
5.37528e-13
1.27568e-14
-7.46162e-13
-1.80152e-11
-9.22775e-12
3.93861e-11
2.99336e-11
2.96131e-14
5.47972e-13
2.58473e-11
-3.28042e-13
-2.6273e-11
1.48867e-13
-1.71207e-11
7.90939e-11
-7.8757e-11
7.73468e-11
-5.85736e-11
4.17048e-11
-4.15615e-11
6.125e-13
5.43156e-14
-3.52759e-11
-1.48607e-13
-2.62375e-13
0
-2.75488e-11
3.25146e-11
2.81216e-11
2.52234e-11
-7.72182e-11
-6.38633e-11
3.66979e-11
-1.48355e-13
-2.41077e-11
-9.71616e-12
4.92683e-11
-1.1011e-10
6.3943e-11
-1.63839e-11
2.28545e-12
3.70202e-13
8.75128e-12
-8.89854e-13
1.43454e-11
1.25995e-10
1.45887e-11
-4.93174e-13
4.4738e-11
-3.03716e-12
-5.46271e-11
6.24503e-11
3.7071e-11
-2.66957e-12
-5.48003e-11
7.09139e-11
-1.59576e-11
2.90125e-13
-8.36493e-13
0
-9.87263e-11
-1.87923e-11
1.48288e-13
-4.45072e-13
-2.87842e-13
-2.27817e-11
-2.86221e-11
-5.86064e-12
5.56742e-11
-4.88272e-11
6.40939e-11
-5.6626e-11
9.4937e-12
-1.17392e-11
-1.5836e-12
-5.0997e-13
-1.70753e-12
1.03779e-10
8.60558e-13
-2.32662e-12
2.16982e-12
9.25273e-12
2.08036e-12
-4.91222e-12
-4.35683e-14
-5.70568e-11
5.76556e-11
-1.61566e-12
1.38505e-12
-5.54306e-11
5.54024e-11
1.04055e-13
-2.53101e-12
2.97691e-13
2.45753e-13
-3.6688e-14
2.13125e-11
-6.2994e-13
7.72374e-13
3.05484e-13
-2.16237e-11
-3.39426e-13
0
-1.48471e-13
-2.85023e-12
-1.16879e-13
-4.26975e-13
-2.82155e-11
3.31063e-12
5.66566e-11
2.19363e-11
-3.03529e-12
3.41454e-12
2.67073e-11
-3.10197e-11
-2.75802e-11
3.07558e-11
6.91025e-13
-3.86596e-11
-1.73689e-11
3.93611e-11
-3.00234e-11
1.11266e-11
1.4817e-13
7.42275e-12
-1.39896e-11
-5.16887e-11
5.10204e-11
-1.00022e-11
1.03815e-11
1.62125e-13
1.23692e-11
-1.48147e-13
0
1.01794e-11
1.12157e-13
-6.59901e-12
7.08986e-12
4.37597e-11
-4.35545e-11
-1.89982e-13
-1.78475e-11
-2.48632e-11
-1.4798e-13
-2.95151e-13
-6.61468e-11
2.6894e-11
1.25463e-13
-9.68271e-12
1.44146e-13
-5.93781e-11
1.97342e-11
-2.95927e-13
2.78205e-11
4.37948e-11
-1.61845e-11
3.04075e-11
-2.74081e-11
-1.47621e-11
-7.57228e-14
5.70942e-11
-8.70491e-12
-2.48583e-11
2.85676e-11
-1.78649e-11
-3.83225e-11
-3.61185e-12
9.04345e-11
-1.68672e-11
-9.89233e-11
5.57553e-11
1.61865e-11
-1.48007e-13
-4.04678e-11
-3.46612e-11
-4.46987e-11
4.42263e-11
-4.5807e-13
-4.28229e-11
4.16782e-11
-4.18385e-13
-4.39608e-11
4.44704e-12
1.48374e-13
1.39478e-14
5.24318e-11
-9.58808e-13
-2.76335e-11
-9.15165e-12
-3.24029e-12
-3.13569e-11
3.01205e-11
3.21996e-11
2.7017e-11
2.42957e-11
-1.13545e-13
2.74187e-11
1.03662e-13
-2.44802e-11
-1.03593e-12
-2.85978e-11
2.57871e-12
3.01381e-11
-7.41011e-13
-1.16948e-12
-3.00233e-12
1.78083e-13
2.63688e-12
-2.23355e-14
9.77254e-14
4.49283e-13
7.24754e-13
-1.48196e-13
-1.4812e-13
1.14651e-13
-1.559e-14
8.09729e-14
5.86237e-14
-4.47688e-14
1.12712e-13
-5.97952e-14
-3.46819e-14
-1.48112e-13
-5.18023e-12
-5.16093e-12
2.89738e-13
-1.98808e-13
2.86845e-11
-3.99445e-14
-4.97554e-11
1.63887e-13
2.1125e-11
0
4.52644e-11
2.26999e-11
-2.52915e-11
-3.0657e-11
2.59472e-12
3.08717e-11
1.01713e-13
1.96485e-13
-9.1724e-14
-2.95839e-13
-3.12063e-11
-1.92465e-13
3.15465e-11
4.91814e-13
-2.68415e-13
-6.08486e-13
-3.21516e-13
-2.8458e-11
3.7599e-13
2.83969e-11
4.4369e-13
-2.67849e-11
-4.63468e-13
2.7223e-11
-3.63609e-14
-1.97905e-11
3.62855e-14
1.96589e-11
-8.68004e-14
0
-1.47925e-13
-3.42254e-11
2.00832e-14
3.32001e-11
-3.46537e-14
2.10246e-11
1.2076e-13
-2.05869e-11
-2.36128e-13
0
-2.1906e-11
-2.23343e-11
9.72663e-14
7.92043e-14
-3.81432e-14
-3.21889e-11
1.80462e-14
3.21566e-11
2.1324e-13
1.48019e-13
0
2.4476e-14
2.39792e-11
-7.94811e-14
-2.42494e-11
3.41125e-11
4.02001e-13
-3.40655e-11
1.9935e-13
1.48122e-13
0
-4.53928e-13
-2.02171e-14
3.32292e-13
-3.92087e-14
6.65731e-13
4.92232e-14
-5.46527e-13
1.31998e-14
0
1.48052e-13
1.36342e-11
3.2415e-13
-1.36682e-11
2.04837e-13
-8.5193e-14
-2.23087e-11
-5.32815e-13
2.19497e-11
1.48051e-13
0
-6.30814e-13
2.07527e-11
7.08803e-13
-2.0835e-11
5.14978e-12
-1.89216e-13
-5.28907e-12
-3.68621e-14
1.48001e-13
2.17472e-11
2.16522e-11
1.47607e-13
2.27949e-13
-2.97885e-13
-1.36187e-13
-1.41962e-11
-2.06471e-11
1.43097e-11
2.07116e-11
2.12967e-11
2.15883e-11
-2.7258e-11
-1.41755e-11
2.40014e-11
1.08666e-11
-2.42709e-11
3.36199e-12
2.77802e-11
1.47898e-13
-2.23292e-11
-2.34389e-11
2.14384e-11
5.16481e-11
3.81777e-11
-2.93205e-11
-3.87497e-11
5.82798e-13
1.91923e-12
7.3943e-13
1.47875e-13
-3.22609e-14
-1.82422e-13
1.68116e-13
5.88457e-13
-6.50654e-16
5.09377e-13
-2.85263e-13
-8.72568e-13
-1.47888e-13
-2.86912e-11
-2.1315e-11
2.83427e-11
2.13983e-11
-2.88464e-11
-2.93595e-11
2.89448e-11
7.32436e-12
-1.3769e-13
2.20378e-11
1.47939e-13
1.16458e-13
-1.0426e-14
4.25037e-13
-1.19744e-13
-6.37056e-13
-1.26213e-13
1.53061e-13
2.26096e-11
2.24882e-11
-2.81196e-11
-2.67418e-11
2.79258e-11
5.71081e-11
5.09007e-13
-3.03545e-11
-6.38023e-13
1.86255e-13
-4.87047e-14
0
1.48043e-13
-8.28235e-13
-2.95295e-13
1.09428e-12
-2.40555e-11
-5.0099e-13
-3.24729e-12
3.44538e-11
2.72879e-11
-3.39036e-11
-2.27874e-11
-2.25591e-11
5.17132e-13
-4.35978e-13
-4.70612e-13
5.68522e-13
-3.45677e-13
-2.2272e-13
3.10416e-13
-1.47972e-13
-8.87659e-13
2.90637e-11
2.9745e-11
-4.87579e-13
-2.59829e-11
2.08141e-13
2.52853e-11
2.20075e-11
-1.13417e-13
-2.1748e-11
-2.36655e-12
2.17023e-11
5.39444e-12
-1.92395e-11
-2.04341e-12
1.93438e-11
4.88883e-11
-1.44487e-13
-2.79121e-11
-1.47914e-13
8.87305e-13
1.17557e-12
1.44022e-13
-3.04157e-11
-3.24796e-11
3.05863e-11
3.24249e-11
-3.80125e-14
4.56679e-13
5.9157e-13
2.70607e-11
2.67311e-11
-3.86245e-13
-2.65814e-11
1.65742e-13
2.68244e-11
-2.38003e-11
2.12236e-11
2.68877e-11
-1.74504e-11
2.72084e-11
1.17963e-13
-2.71884e-11
2.51322e-14
1.06641e-13
-1.12642e-13
-2.33262e-13
1.72537e-13
2.09689e-11
2.0704e-11
0
2.24194e-11
-1.6567e-13
-2.3197e-11
1.4658e-13
-8.4705e-14
-2.95705e-14
2.80777e-11
-2.52891e-13
-2.73606e-11
-1.47907e-13
2.04518e-13
-9.37749e-14
-2.86253e-11
-9.84538e-13
2.8613e-11
3.70341e-13
-4.1586e-13
5.9136e-13
2.95836e-13
-1.47939e-13
-1.80239e-13
-5.65008e-14
2.81701e-13
-2.42233e-14
-8.4291e-14
1.16426e-15
-2.20694e-11
-2.96286e-13
2.20442e-11
2.95928e-13
-5.50371e-14
-3.86369e-13
-7.23966e-14
1.59585e-13
2.83285e-12
-6.90683e-15
-2.80041e-12
2.14659e-13
0
-8.94951e-12
-9.66574e-12
-6.3015e-13
1.00919e-12
-2.94325e-13
-9.08034e-13
2.11293e-13
-6.16031e-14
-8.47421e-14
-3.6957e-13
-7.38528e-14
-1.81912e-14
-3.02937e-13
2.37242e-11
-5.10169e-12
-2.40793e-11
5.01269e-12
4.64468e-13
2.36566e-13
2.2176e-13
-5.17546e-13
-9.48551e-14
-2.04967e-11
-1.8948e-14
-6.51437e-12
-2.2423e-11
2.74786e-11
2.24456e-11
1.97741e-13
2.21788e-13
-7.38254e-14