/*--------------------------------*- C++ -*----------------------------------*\
  =========                 |
  \\      /  F ield         | OpenFOAM: The Open Source CFD Toolbox
   \\    /   O peration     | Website:  https://openfoam.org
    \\  /    A nd           | Version:  10
     \\/     M anipulation  |
\*---------------------------------------------------------------------------*/
FoamFile
{
    format      ascii;
    class       volScalarField;
    location    "0.8";
    object      gradTz;
}
// * * * * * * * * * * * * * * * * * * * * * * * * * * * * * * * * * * * * * //

dimensions      [0 -1 0 1 0 0 0];

internalField   nonuniform List<scalar> 
46825
(
1.49086e-13
0
-1.48932e-13
2.39433e-11
4.45697e-13
-1.78279e-11
1.48719e-12
2.45747e-11
2.98155e-13
1.98303e-11
5.96213e-13
-1.4893e-13
1.48581e-13
-2.44238e-11
1.72746e-11
1.47648e-13
-4.44079e-13
2.51109e-11
-2.97867e-13
-7.45312e-13
-2.03999e-11
0
-4.37236e-11
-2.60476e-11
-2.90893e-13
-5.81788e-13
-1.46336e-13
-1.68398e-11
-7.42861e-13
-5.95649e-13
-4.46072e-13
0
-8.4872e-12
3.02333e-11
6.12747e-12
6.41247e-12
-5.7587e-13
-3.62899e-11
0
-5.94772e-13
1.99058e-11
2.95287e-13
-1.60001e-11
-2.8502e-13
7.03437e-12
-7.17503e-12
-1.42508e-13
-3.41816e-11
1.62405e-12
-1.18838e-12
-1.97595e-11
1.4767e-13
-3.78278e-11
0
6.75392e-12
-2.96889e-11
1.89574e-11
0
1.47664e-13
2.97125e-13
-1.04116e-12
5.92314e-13
-1.33254e-11
-2.59304e-11
9.40853e-12
-1.85318e-12
1.00837e-11
6.88219e-12
4.44217e-13
-8.92385e-13
-4.46889e-13
0
-1.47831e-13
-1.85976e-11
-1.41146e-11
-2.91023e-13
-2.92875e-13
2.70534e-11
-3.22565e-11
2.97917e-13
-6.85861e-12
-1.48984e-13
1.84323e-11
-1.48082e-13
-1.47687e-12
1.94948e-11
4.44253e-13
-2.15544e-11
0
5.96405e-13
0
2.98193e-13
1.48959e-13
7.43695e-13
-1.04007e-12
1.48584e-13
5.94981e-13
1.19174e-12
0
-2.08776e-11
2.73031e-11
-1.49346e-13
2.49391e-11
2.49224e-11
-2.98375e-13
-1.80516e-11
3.1638e-11
6.1229e-12
-1.49359e-13
1.49216e-13
-2.62796e-11
1.12218e-13
2.00212e-14
1.9978e-12
6.90205e-12
1.7015e-12
1.44593e-14
3.14214e-11
-3.74075e-13
-7.46658e-13
-1.58246e-11
7.78804e-14
4.1716e-12
-2.60979e-11
2.95805e-13
-3.72559e-11
2.95934e-13
1.39626e-11
-4.81172e-13
-2.98595e-13
2.50645e-11
7.82647e-12
0
6.32403e-11
2.90624e-13
1.16147e-12
-1.3104e-11
-2.91666e-11
-6.07513e-12
2.52142e-11
2.04346e-11
1.31369e-11
4.99862e-11
-8.71846e-13
2.87475e-13
-2.87087e-13
8.65041e-13
-5.13131e-11
-4.44005e-13
-3.29635e-11
-1.99892e-11
1.5031e-11
-1.50799e-11
4.06527e-11
-1.34932e-11
-2.92408e-11
0
0
7.48602e-13
-1.49166e-13
-8.95413e-13
-4.16756e-11
-1.27291e-11
-2.53454e-11
5.76776e-13
-2.01606e-12
-1.1279e-11
3.67101e-11
7.4651e-12
-4.47681e-13
-4.4803e-13
3.06908e-12
-1.42671e-11
-1.70999e-11
8.79877e-13
-3.89786e-11
-4.08227e-11
2.78193e-11
1.50552e-11
1.82192e-11
1.4936e-13
-1.12246e-13
8.0281e-12
7.22817e-12
5.24479e-13
-7.1829e-12
-7.9728e-12
-1.03367e-12
7.59558e-12
8.96163e-13
0
-4.48054e-13
1.49332e-13
8.9537e-13
1.49176e-13
2.23769e-11
-1.49238e-13
4.48038e-13
0
1.49229e-13
2.98326e-13
-2.25917e-11
8.13408e-13
-7.8731e-14
-2.51229e-13
1.82848e-11
1.79929e-11
-1.87296e-11
1.08948e-12
-1.92457e-11
-3.79693e-11
0
0
3.02064e-11
6.89432e-12
-4.49882e-12
-5.32903e-11
-5.25674e-11
0
-2.82036e-13
2.35694e-13
-2.98736e-13
-7.23494e-11
-2.27037e-11
1.03502e-11
4.33e-11
-1.51763e-12
2.14809e-11
-6.00634e-13
-2.30707e-11
4.02089e-12
-1.34552e-11
2.90597e-11
4.77774e-06
3.14443e-06
3.20381e-06
2.88097e-06
3.93814e-07
9.03535e-13
1.32531e-13
-9.77858e-14
-2.997e-13
-4.77863e-11
3.14215e-06
-9.07225e-06
-9.30188e-06
-8.00356e-06
4.93996e-07
1.21011e-11
-1.95219e-11
-1.99897e-11
3.92824e-11
1.82903e-11
3.20399e-06
-9.29638e-06
-9.54525e-06
-8.16622e-06
4.98727e-07
4.11867e-11
2.0207e-11
-6.63438e-14
-8.6808e-12
-1.51777e-12
3.10522e-06
-7.96731e-06
-8.16283e-06
-6.99716e-06
4.76185e-07
-1.23785e-11
8.85969e-14
2.56944e-13
8.9595e-13
1.96795e-11
1.41533e-07
4.91721e-07
4.98331e-07
4.76233e-07
-5.3681e-10
3.4877e-11
-1.75287e-12
6.67752e-12
2.98392e-13
5.13609e-11
1.38573e-11
-6.26169e-11
-2.08947e-11
3.62302e-11
4.20952e-11
2.99101e-13
-3.99017e-13
-4.47513e-13
-2.12736e-11
-1.16188e-13
-9.31035e-14
7.19706e-13
2.20167e-13
-3.94412e-13
1.74343e-11
1.93247e-13
2.13337e-11
-2.73807e-11
2.12409e-13
-2.33577e-12
2.69962e-11
2.87109e-11
6.28398e-13
-7.80526e-12
1.47532e-13
2.16681e-11
1.48854e-13
2.60046e-11
2.97015e-13
-1.94244e-13
-2.02724e-10
-3.19306e-10
-2.77258e-10
-1.94339e-10
-7.94842e-12
4.0369e-11
-2.13993e-13
-1.17896e-13
-2.32883e-12
1.12884e-08
-1.47059e-05
-1.47414e-05
-1.44015e-05
-1.47211e-05
-1.60718e-05
-1.77969e-10
-1.98504e-11
-2.47926e-11
-2.18009e-10
-1.67202e-05
-224.995
-293.185
-293.816
-292.292
-0.930428
3.87562e-08
-4.53993e-11
3.39299e-13
-2.92936e-10
-1.46792e-05
-293.18
-405.197
-406.687
-402.922
-1.9001
-2.51732e-08
3.19905e-11
-1.98943e-11
-2.96751e-10
-1.45533e-05
-293.793
-406.671
-408.25
-404.315
-1.9082
-1.44166e-08
2.81006e-11
5.50631e-13
-2.7367e-10
-1.47199e-05
-291.282
-402.777
-404.304
-400.396
-1.89201
-4.66851e-08
-2.9391e-13
-3.92538e-13
-6.82649e-11
-1.60385e-05
-0.299517
-1.89538
-1.90795
-1.89193
-0.275268
9.226e-08
-1.88709e-11
-1.85917e-11
2.96711e-13
-2.08192e-10
5.59019e-08
-2.14933e-08
-1.50668e-08
-4.3712e-08
9.29835e-08
3.53937e-11
-2.27055e-11
-1.33927e-12
5.55839e-13
-2.00469e-11
2.88161e-13
7.31073e-12
-2.18364e-11
7.61127e-13
3.61548e-12
-1.76903e-13
1.3395e-11
0
3.5328e-12
2.22558e-11
5.02941e-13
7.16237e-13
-1.77267e-11
-1.74345e-11
1.49323e-13
-1.13928e-12
2.97342e-13
6.20126e-11
2.96347e-13
4.48418e-11
3.74243e-09
7.88804e-09
7.82134e-09
7.61345e-09
-2.27107e-10
-4.08916e-11
5.927e-14
2.25364e-13
5.03477e-12
6.44754e-09
-0.00280747
0.0220048
0.0222736
0.0216797
-8.63578e-05
2.3321e-09
2.32849e-11
-3.56207e-12
2.77717e-09
0.0108024
7.25117e-06
-2.20991e-11
1.04891e-12
7.87539e-09
0.0220158
2.02969e-05
4.7502e-11
2.05875e-11
7.75619e-09
0.0221972
2.07441e-05
3.09506e-12
-1.90933e-11
7.64811e-09
0.0216771
1.92381e-05
-1.82954e-11
-2.58297e-14
-1.19693e-10
-7.72269e-05
-4.90916e-07
-1.28488e-11
-3.45298e-11
-5.92316e-13
2.57732e-09
1.27528e-05
2.04956e-05
2.08064e-05
1.92123e-05
-4.88968e-07
-3.36699e-11
2.63676e-13
4.4586e-13
3.68589e-11
-2.46101e-11
8.9285e-14
1.35655e-12
1.55193e-12
6.35498e-13
-4.32822e-11
-1.88236e-11
1.94732e-11
-1.85831e-11
-1.93412e-11
7.25495e-12
-2.73378e-11
-2.7631e-11
-8.60507e-14
-4.77925e-11
-2.64563e-13
-4.02887e-11
0
2.84947e-11
-2.97272e-13
-4.0767e-11
5.64312e-10
1.87833e-09
1.82496e-09
1.74441e-09
-6.00468e-11
4.31661e-11
-6.03794e-14
-4.3885e-12
7.6769e-13
-6.99113e-09
0.000527591
0.000714147
0.000715815
0.000712733
-7.12524e-06
2.939e-10
1.86367e-11
2.47332e-11
5.1742e-10
0.00032517
2.98509e-06
2.02879e-11
2.22754e-13
1.77248e-09
0.000714869
1.53454e-06
1.96754e-13
2.04906e-11
1.81158e-09
0.000715794
1.4192e-06
-2.75931e-11
-9.27033e-13
1.70027e-09
0.000712866
1.18794e-06
8.67505e-13
-4.46191e-13
2.61688e-11
-2.59836e-06
-3.14299e-08
2.2071e-12
1.88411e-11
-2.97733e-13
2.67765e-10
7.48866e-07
1.34577e-06
1.41951e-06
1.18778e-06
-3.87969e-08
-3.87528e-11
2.1883e-11
8.92018e-13
-4.50939e-13
4.62668e-11
5.16901e-14
-3.36783e-11
-5.74404e-13
-9.22623e-14
3.05367e-12
-6.59956e-14
-1.35314e-11
1.48749e-13
4.97198e-11
-2.32148e-11
-1.47402e-13
5.0954e-13
-1.05902e-13
-6.032e-13
-2.3185e-11
2.20712e-11
-1.48796e-13
-2.43209e-11
3.75204e-11
2.26956e-12
1.64486e-10
4.74545e-10
4.78468e-10
5.00802e-10
-8.94199e-13
-4.17694e-11
3.70087e-13
-2.43748e-11
2.01106e-12
-1.24297e-08
0.000129138
0.000241423
0.000161286
0.000240814
-4.00422e-06
1.21206e-10
4.20479e-13
1.07392e-12
1.08847e-10
0.000127363
1.86805e-07
2.33964e-11
-1.92076e-11
4.55466e-10
0.000241652
2.4706e-07
-2.73646e-11
2.01094e-13
4.41519e-10
0.000241548
1.79024e-07
-2.24359e-11
2.05542e-11
4.79723e-10
0.000240682
-6.66814e-08
1.80376e-11
1.85618e-13
-3.27687e-11
-1.07604e-06
1.04581e-08
1.32056e-11
3.43362e-11
5.96655e-13
-5.91786e-12
1.1027e-07
1.5337e-07
1.98595e-07
1.61438e-07
-6.81719e-09
3.94485e-11
-4.16617e-13
1.48761e-13
-3.72197e-11
2.05061e-11
1.09963e-13
-3.10206e-11
-3.99419e-13
-5.22457e-13
2.54259e-11
1.93275e-11
-1.99377e-11
4.43496e-11
1.97529e-11
-3.01385e-11
2.39147e-11
2.11759e-11
1.44356e-13
5.20264e-11
7.99485e-13
1.86174e-11
-5.95465e-13
-2.77067e-11
-4.32087e-11
1.65873e-12
2.75294e-11
1.25298e-10
8.14598e-11
9.0054e-11
-1.45551e-11
-1.49282e-12
-7.95514e-13
-2.06918e-11
-2.65079e-13
4.0044e-09
6.43721e-05
0.000242205
8.17096e-05
0.000161552
-5.17615e-06
5.09638e-11
4.20416e-13
-4.68698e-12
4.4797e-11
1.86273e-06
-2.13152e-08
-3.40885e-13
-1.97685e-13
1.51336e-10
0.000242048
-6.33795e-08
-1.29388e-13
1.88468e-11
1.81643e-10
8.17141e-05
-7.04438e-08
-2.017e-11
4.96855e-13
9.55953e-11
0.000241412
-1.52048e-06
-3.23763e-11
1.11641e-13
-4.23529e-11
-2.3224e-07
7.87084e-09
-1.03788e-12
5.16109e-14
-5.97294e-13
1.54839e-11
-6.22332e-08
2.5144e-08
-5.09107e-08
-2.04844e-08
-2.3842e-09
-3.01287e-13
1.75855e-13
2.97672e-13
2.53308e-14
-7.42444e-12
-1.89013e-13
2.71528e-11
4.00551e-13
-4.48218e-13
-6.80505e-12
2.04592e-11
-1.48862e-13
-4.46642e-13
-3.0698e-11
3.93745e-14
-2.25856e-14
1.99427e-11
-1.80614e-13
3.83363e-13
2.3304e-11
-2.22449e-11
1.48922e-13
-4.38883e-13
5.66327e-12
-1.71799e-12
-1.90362e-10
-8.05395e-10
-7.60979e-10
-7.22795e-10
1.67937e-11
2.09035e-12
2.51078e-13
2.42545e-11
-3.83411e-11
2.33021e-09
-0.00013035
-7.45944e-05
-0.000154918
5.16889e-06
-5.18293e-06
-1.55665e-10
-8.53435e-13
1.80166e-11
-1.6513e-10
-0.000132472
-6.95208e-07
-1.776e-13
1.948e-11
-7.96493e-10
-7.46005e-05
-1.31378e-06
-7.5773e-13
-3.22234e-13
-8.58429e-10
-7.48844e-05
-1.3446e-06
9.09898e-13
-2.32795e-11
-7.19488e-10
-7.4193e-05
-5.98241e-08
-2.79813e-14
1.40267e-13
3.32352e-12
-8.96607e-08
-2.19923e-07
-7.47661e-14
-5.13946e-14
-3.67362e-11
-1.81639e-10
-6.54892e-07
-1.34719e-06
-1.3414e-06
-1.15451e-06
2.51551e-08
-3.07932e-13
-6.55409e-13
-1.48893e-13
2.09948e-11
3.19192e-12
-2.70989e-11
2.93957e-11
1.3393e-12
7.16215e-13
-3.12236e-11
-5.58213e-13
1.48915e-13
-5.95687e-12
-2.88749e-11
-7.95235e-14
-2.36413e-11
-2.10408e-11
2.50908e-14
2.6032e-12
-5.41633e-13
-2.78284e-13
5.95841e-13
2.48543e-11
3.27886e-12
-1.19274e-12
-3.48956e-10
-8.04754e-10
-6.5977e-10
-1.01489e-09
5.85564e-11
-1.4929e-12
1.08474e-12
2.10239e-11
3.78018e-11
2.11819e-09
-0.00708629
-0.0166129
-0.0168764
-0.0165085
2.8224e-05
-3.32906e-10
3.91725e-13
-1.89123e-11
-3.6588e-10
-0.00721267
-9.30887e-06
1.92042e-11
-8.23545e-14
-7.75615e-10
-0.0166127
-1.55994e-05
-1.71646e-13
-1.95666e-11
-6.52061e-10
-0.016876
-1.58349e-05
1.95088e-11
-2.01661e-11
-1.01156e-09
-0.0163485
-1.43383e-05
3.21439e-11
3.85797e-13
3.61293e-11
3.62241e-05
2.04467e-07
2.30929e-13
-2.8602e-14
3.76309e-11
-3.74765e-10
-9.31719e-06
-1.56309e-05
-1.58373e-05
-1.45106e-05
2.11945e-07
-6.02323e-13
9.20532e-13
0
2.60776e-13
-1.90143e-11
3.76052e-13
3.61699e-13
-1.00915e-11
-1.48544e-13
-5.83423e-13
-2.05393e-11
7.44784e-13
-2.97885e-13
6.51667e-13
-2.85292e-14
-4.47612e-13
1.01877e-11
2.02681e-11
1.32424e-13
2.16859e-11
-1.95149e-11
-1.63864e-12
-1.08459e-12
-4.76941e-11
-1.66579e-13
3.28741e-11
-5.35481e-11
2.09084e-11
-5.52228e-11
-8.61129e-14
1.79157e-12
-5.3325e-13
-2.37966e-13
-5.08143e-11
-2.56391e-09
6.71173e-05
6.04302e-05
6.06651e-05
6.07276e-05
6.19202e-05
6.6745e-10
4.60021e-13
-1.90167e-11
-5.84035e-11
6.65895e-05
-5.72766e-08
-2.22264e-11
2.54397e-11
-3.38323e-11
6.04517e-05
-6.90273e-08
1.84973e-13
3.71187e-13
-1.29566e-11
6.07916e-05
-6.88878e-08
-6.82302e-13
2.25285e-11
-8.22389e-12
6.0964e-05
-6.88032e-08
-2.21054e-11
2.87203e-11
-1.169e-13
6.22035e-05
8.92506e-09
-2.00993e-11
2.13937e-13
-1.19412e-12
6.34374e-10
-5.72946e-08
-6.9092e-08
-6.89585e-08
-6.89748e-08
8.94875e-09
3.73382e-11
1.65746e-13
2.97907e-13
9.86791e-13
2.00582e-13
2.68206e-11
7.94407e-13
-1.39782e-12
-1.07001e-12
3.14615e-11
-2.5265e-11
1.48964e-13
-1.96606e-11
-1.62691e-11
1.911e-13
-8.05891e-14
-1.90538e-11
1.74119e-11
-2.92061e-11
3.31336e-13
-1.25795e-13
0
-2.5006e-11
4.44225e-11
1.44116e-12
-4.27412e-11
4.13075e-11
-3.89951e-11
3.77413e-11
5.6377e-13
-5.07687e-11
-6.4001e-14
-3.96239e-14
5.11255e-11
-6.11983e-13
-5.79988e-13
1.17621e-12
-8.24601e-12
7.80994e-11
-2.66226e-13
7.23213e-12
-6.41802e-14
-6.1945e-13
4.01048e-11
-8.75886e-11
1.56249e-12
-1.89239e-11
1.17303e-13
2.92952e-13
-2.3523e-11
-4.11388e-13
-5.3891e-13
-1.38156e-13
5.86377e-13
-8.01037e-11
-1.12487e-13
1.45675e-13
1.97071e-11
4.27142e-11
2.34885e-12
1.4158e-12
1.99376e-11
-4.38769e-13
4.89871e-14
7.50758e-13
-9.05959e-12
-2.8454e-11
1.9772e-11
8.95918e-13
-1.63477e-11
9.95121e-13
5.95005e-11
5.42247e-11
4.97986e-11
2.63408e-11
-3.67571e-11
-1.43898e-12
1.99587e-11
8.6616e-14
-2.18417e-11
2.55742e-13
1.95463e-11
2.84154e-11
5.14691e-14
1.777e-12
4.16882e-13
-1.04268e-12
-5.95738e-13
-2.24168e-13
-1.10057e-14
-4.47376e-13
-4.36277e-11
-2.02885e-11
8.00872e-13
-1.96156e-12
4.52179e-11
1.19154e-12
7.88206e-13
4.20418e-11
-2.45384e-13
-3.89276e-11
2.9284e-13
8.79252e-13
-2.92454e-13
-4.54997e-13
4.86856e-11
2.64501e-11
2.26718e-13
1.65731e-13
-1.49998e-10
1.23935e-12
-1.82137e-12
1.18163e-12
-1.76641e-12
1.41473e-12
1.65027e-11
9.41099e-14
-4.41149e-14
-1.17076e-12
2.04809e-10
-4.17097e-11
4.01313e-11
-4.74934e-11
2.92826e-13
-7.34317e-11
-2.89047e-13
2.2681e-13
-5.86474e-14
-2.93069e-13
-1.77244e-12
5.12145e-11
-1.52434e-14
1.97905e-13
-4.26972e-11
-1.1776e-12
1.31886e-12
4.29913e-11
-2.9115e-11
-3.16143e-13
-2.16277e-12
3.98625e-11
2.01614e-11
2.23489e-11
1.79204e-12
-3.47057e-12
-1.33539e-12
3.0163e-13
-2.17558e-13
-7.14374e-11
-2.62757e-11
-3.01411e-13
-2.34658e-13
-1.48933e-13
-9.0821e-13
2.49438e-13
3.83381e-13
-6.11407e-13
-7.41185e-13
-2.44324e-11
2.28261e-11
2.79927e-11
5.95761e-13
-4.02105e-12
4.45868e-11
3.86963e-13
6.29758e-13
4.57302e-11
-1.73936e-11
1.55967e-11
6.20499e-13
3.73913e-14
2.29355e-11
2.71297e-13
-4.23393e-11
-2.9957e-13
4.44941e-11
-3.71975e-11
5.86273e-13
-2.92488e-13
7.9387e-13
1.19482e-12
-5.1331e-13
-2.84618e-11
-6.53659e-13
6.12329e-13
-4.45416e-13
-1.17074e-13
0
-1.35451e-11
1.12524e-13
-5.44987e-12
-2.5442e-13
3.3033e-12
5.85425e-13
2.15574e-12
6.74117e-11
8.04126e-14
8.26885e-14
5.85745e-13
-1.33571e-12
8.58627e-14
-3.30182e-14
2.92946e-11
-5.86243e-13
5.9099e-13
-5.13976e-11
-8.63577e-14
3.14381e-13
0
1.07772e-10
-1.47905e-12
-1.99417e-11
2.77601e-13
-3.61025e-13
2.94472e-13
-3.9525e-11
4.68857e-11
-4.0695e-11
-2.38955e-12
-1.30939e-12
-3.12831e-13
2.90861e-13
5.00078e-13
2.13141e-11
3.54994e-11
0
-1.80121e-11
-2.07011e-11
-8.48238e-14
2.20645e-11
-2.36509e-11
-1.9744e-11
1.10606e-11
1.54656e-13
-9.66239e-13
9.04593e-14
0
2.97866e-13
-2.74444e-13
-6.31573e-14
4.13158e-13
1.25173e-11
-1.06587e-13
-2.4612e-12
-2.04671e-11
-2.54962e-11
1.96598e-11
1.99149e-11
5.96263e-13
5.31844e-13
-5.85387e-13
3.7484e-11
-5.8617e-13
8.77348e-13
-4.29858e-14
-1.31412e-11
-4.4618e-11
-2.04057e-11
4.85636e-11
1.83689e-12
-3.96062e-13
-7.85718e-11
1.6547e-11
-5.88888e-13
8.68192e-11
-3.70039e-11
1.35203e-13
-2.0485e-13
-4.47812e-11
2.38139e-12
7.88196e-12
-1.80211e-11
2.08184e-11
-4.83182e-11
-9.27726e-11
-5.52339e-13
2.87265e-13
9.99474e-14
2.93075e-13
-5.90961e-13
1.812e-13
-3.91453e-13
1.98758e-11
5.84888e-13
-1.15422e-10
-2.89918e-13
-2.07277e-11
2.02102e-13
4.53918e-11
8.72846e-11
-5.3659e-11
-1.65047e-13
-2.54547e-12
1.34394e-11
-5.24718e-11
-5.32748e-11
4.57122e-13
-6.96696e-13
5.57307e-11
-3.59619e-11
0
-4.06713e-13
7.44655e-13
3.47442e-11
9.12924e-13
-1.54343e-13
-2.75516e-11
-1.18433e-13
2.52585e-11
-2.22573e-11
2.66034e-11
-5.95741e-13
3.87245e-12
6.55207e-13
5.80618e-13
-2.36861e-11
-2.65779e-11
3.19909e-13
-1.59764e-11
-2.69955e-13
4.33385e-13
-2.26404e-11
2.13887e-14
-2.98082e-13
1.50775e-13
3.62885e-11
1.46417e-12
4.83569e-11
2.92441e-13
-3.91296e-13
1.22416e-11
8.68329e-15
2.83583e-11
-4.82667e-11
2.6321e-11
-7.63613e-11
5.54019e-13
0
5.88424e-13
3.57876e-12
3.57177e-11
-2.53475e-13
-2.91689e-12
4.56523e-11
1.08271e-10
-3.208e-11
-1.15337e-13
9.53133e-14
4.65586e-11
-1.33767e-13
-1.14853e-12
3.08283e-14
-2.94475e-11
8.79208e-13
1.13944e-10
1.12886e-12
-1.96288e-13
2.64936e-13
-5.84861e-13
-2.94186e-12
-7.57072e-13
-3.63656e-14
-4.35344e-13
-4.56421e-11
-1.72423e-12
1.13842e-10
-1.8346e-11
2.11673e-11
-5.07571e-12
5.31262e-11
5.3648e-11
-8.5239e-13
3.76185e-13
-1.73385e-11
5.30388e-11
0
-3.85513e-13
2.97895e-13
-1.78909e-13
-2.13621e-13
2.34735e-11
-7.01396e-14
-2.92932e-11
3.21789e-11
2.25764e-11
8.44371e-14
-7.44742e-13
-1.48961e-13
-1.32544e-13
-6.38926e-14
-1.06336e-12
-6.95694e-14
-1.35163e-13
2.25961e-12
8.3909e-15
-5.41561e-13
-2.01129e-11
-1.18771e-12
2.98052e-13
4.26292e-11
-3.57758e-11
-4.31976e-11
-4.82347e-11
1.17351e-12
-8.82634e-13
4.92492e-11
3.22016e-11
7.49337e-12
-5.8035e-13
2.43961e-12
1.16124e-12
6.49929e-12
1.03538e-10
5.01602e-11
-3.1274e-12
-3.64371e-11
2.70217e-13
1.4946e-14
0
9.52293e-11
-1.86734e-12
-1.88624e-11
8.2464e-14
1.46926e-12
5.90829e-13
-4.12481e-11
2.72708e-13
-3.07888e-13
-6.76452e-12
-1.77497e-12
-4.176e-11
5.18132e-13
-1.95883e-11
-8.80182e-13
8.91109e-11
-3.48096e-11
-2.04976e-11
-3.29213e-13
2.94237e-13
-1.44542e-12
-6.0473e-11
-2.35119e-13
-1.98344e-11
-8.0591e-12
-1.83928e-12
1.8554e-13
-6.5636e-13
-2.75694e-13
-3.81712e-11
-5.46052e-11
-6.01805e-13
2.92296e-13
-2.97959e-13
-6.8899e-11
-1.01518e-12
1.23207e-13
2.83279e-11
4.10818e-13
4.29969e-13
-2.46234e-13
-6.272e-11
1.48985e-13
1.48966e-13
1.93659e-13
-3.99645e-13
2.38946e-11
-1.57364e-13
5.36266e-13
1.6153e-13
2.74414e-14
1.12492e-13
2.98006e-13
3.88793e-15
5.96355e-13
-4.26454e-11
2.93495e-13
4.203e-11
2.94175e-13
-4.63683e-11
-5.19147e-11
-4.77976e-11
-2.66968e-11
3.36288e-14
1.17594e-11
6.13733e-13
4.43778e-12
2.69983e-13
1.20723e-12
-1.00906e-12
-7.42004e-11
1.47769e-11
-2.04538e-11
-2.8235e-13
-2.93414e-13
1.22987e-12
-1.7661e-13
-2.40694e-11
-9.82378e-13
0
-7.56221e-11
8.02823e-11
3.01005e-15
-3.31851e-13
7.35384e-12
8.04785e-11
4.1299e-11
-1.97946e-11
-6.30513e-14
1.17385e-12
1.91582e-12
3.54676e-11
-4.8471e-12
-1.61618e-13
5.06537e-11
-5.60524e-15
3.66057e-14
5.70142e-13
-2.29231e-11
-5.97488e-13
2.24712e-11
-6.02901e-13
6.84079e-13
-8.19081e-14
2.52347e-11
3.02807e-12
3.01422e-13
3.69717e-11
2.41381e-11
2.04222e-11
-2.2584e-14
2.62855e-11
1.6062e-13
-1.82466e-11
-3.24183e-11
-4.27309e-11
-1.06537e-13
2.48831e-11
5.95812e-13
-1.12395e-13
2.20518e-11
8.31889e-13
2.97805e-13
2.18015e-13
-4.67041e-13
-4.8806e-14
-2.9245e-13
1.48993e-13
-1.93024e-11
4.59186e-11
-4.81958e-11
5.68287e-11
0
0
9.18426e-11
5.30311e-11
-8.06535e-12
-1.3414e-11
1.58758e-11
-1.25899e-11
3.06805e-12
9.86777e-11
-5.88765e-13
5.89762e-13
-5.87928e-13
-7.47424e-11
1.01647e-10
-1.39044e-12
1.3452e-13
5.85656e-13
5.27912e-12
-5.56814e-13
4.4462e-11
2.17772e-13
-3.80651e-11
5.88753e-13
-3.84846e-11
4.38735e-13
2.8545e-13
-5.86148e-13
2.35902e-12
-5.90094e-13
-4.93772e-13
2.03474e-13
-2.9247e-13
6.46719e-12
-5.88926e-13
1.36761e-11
2.33349e-13
-5.11443e-11
5.92197e-11
5.57028e-11
9.33782e-14
1.48093e-13
-8.96187e-13
2.25336e-13
-3.98376e-11
6.11916e-11
2.63837e-14
-2.51529e-11
-1.23615e-13
-1.20555e-12
5.82042e-13
-2.97991e-13
3.41235e-11
1.95211e-11
-2.76407e-11
1.03268e-13
-4.00944e-12
-4.1922e-13
-3.01075e-11
5.83942e-12
1.49e-13
0
-7.50123e-13
5.11154e-15
-2.4547e-11
1.8633e-11
-2.30932e-11
-4.41114e-11
-4.5026e-13
-5.08594e-13
2.07116e-11
-2.9422e-13
-4.5918e-11
4.889e-11
-5.62455e-11
0
0
-4.62105e-11
-2.9424e-13
7.46841e-12
5.00328e-11
-2.78791e-13
1.11413e-12
3.68293e-12
5.74842e-13
-1.9462e-11
-8.15448e-11
-8.59714e-11
4.62951e-12
8.40147e-11
1.20387e-13
3.97765e-12
2.92839e-13
8.51932e-12
-5.64256e-13
2.34421e-11
-5.54776e-14
3.80623e-11
-1.22876e-12
4.32586e-11
-1.10252e-13
9.57118e-14
-3.83922e-11
-5.90897e-13
-4.9657e-11
2.00829e-11
3.50608e-13
1.1698e-12
2.35537e-12
-1.41896e-13
5.17221e-12
-2.8067e-13
2.8474e-13
3.08309e-13
-1.1369e-10
-2.09586e-11
-1.21521e-11
2.98727e-13
1.07625e-12
3.96193e-11
-6.05495e-11
-3.22523e-15
-3.8753e-11
-1.36327e-12
1.50722e-12
-1.84465e-11
-2.42879e-11
-2.09544e-11
1.47149e-13
-2.61537e-11
-6.2069e-13
1.83442e-11
-1.68544e-13
1.99596e-11
7.96695e-13
-2.44375e-11
0
6.80181e-13
-2.22005e-11
-2.42137e-11
-1.91272e-11
4.49214e-14
8.91058e-13
-1.92852e-11
-4.30024e-11
-2.35511e-11
5.99137e-13
-3.96611e-11
2.5883e-13
0
1.46432e-12
5.86233e-13
-2.92484e-13
-8.82704e-13
-1.19502e-12
-5.90389e-13
-2.96252e-11
-4.4303e-13
-6.13853e-13
-3.50554e-11
7.49086e-11
-5.31836e-12
-2.94441e-12
1.86768e-12
-8.29368e-11
1.32526e-12
1.85677e-11
-2.92861e-13
7.05895e-13
1.81742e-12
-4.46992e-11
2.50477e-11
8.78473e-13
-2.20666e-11
-4.30514e-11
-3.52973e-13
1.90776e-11
8.61718e-11
-8.74592e-11
4.98395e-11
6.81686e-13
-1.85256e-13
-2.04731e-12
5.88888e-13
5.68947e-11
7.01086e-12
-1.91637e-11
-6.63566e-13
-9.06968e-13
5.79336e-11
3.91631e-13
3.39681e-13
7.11046e-11
4.0931e-11
3.84673e-13
-2.68291e-14
-4.9891e-14
3.88913e-11
-4.74493e-13
5.48639e-11
-1.19985e-13
-2.32528e-11
2.23811e-11
-1.90664e-11
5.45364e-11
9.60445e-15
-1.77109e-11
1.84969e-11
3.01862e-11
2.00359e-11
-1.93783e-12
5.96492e-13
8.83419e-13
7.64912e-13
2.39713e-11
-1.83607e-11
2.25292e-11
4.39841e-11
2.00845e-11
1.97701e-11
-2.10317e-11
9.31882e-13
4.02694e-11
4.08319e-11
5.71152e-11
-2.04983e-12
2.93091e-13
-4.24072e-11
-2.94245e-13
5.97569e-13
-4.25991e-11
-3.40267e-11
4.22093e-11
1.84059e-12
-1.33333e-12
0
0
8.77185e-11
-1.30048e-12
-6.50512e-13
2.05357e-11
-3.89774e-12
4.24618e-11
-1.19743e-10
4.14115e-14
3.38935e-13
-1.78546e-11
4.09926e-11
8.49219e-11
-6.41943e-13
2.05407e-13
-3.48519e-13
-6.15444e-12
-3.54406e-12
-1.68375e-13
-2.023e-13
-2.24076e-11
1.16988e-12
0
-5.70676e-11
2.76645e-13
-2.90808e-11
1.30199e-12
-7.88787e-11
-5.85061e-11
2.02085e-11
1.5918e-11
-7.05138e-11
-8.60386e-11
-2.49525e-11
2.69531e-13
3.92592e-11
4.05084e-11
-5.10696e-13
-5.54556e-11
4.32652e-13
1.49161e-13
3.04616e-13
-7.92789e-15
6.3033e-13
6.62367e-13
5.14486e-13
2.69635e-13
-2.40065e-11
-2.34642e-11
1.49172e-13
1.49254e-13
-5.75961e-13
1.45882e-12
2.4371e-11
1.88154e-11
-2.18987e-13
-5.29842e-13
1.96031e-11
4.34349e-11
2.31381e-11
-2.09418e-11
-4.95594e-11
-4.08638e-11
-6.30975e-11
0
-1.46919e-12
4.28128e-11
-3.74166e-11
-3.9759e-11
4.14304e-13
2.69838e-11
-4.25639e-11
-6.12068e-13
7.67324e-13
4.17113e-11
5.88417e-13
7.74406e-11
1.0056e-10
-6.02317e-13
3.13437e-13
-1.87749e-11
-4.19589e-11
8.33723e-11
-5.36279e-11
1.90305e-11
-2.44246e-11
-4.11386e-11
-7.74994e-11
4.54605e-11
0
-1.9016e-11
-4.29374e-11
1.17596e-12
-1.17633e-12
-1.26362e-13
8.17012e-14
3.78516e-11
-5.27656e-12
1.81969e-14
-2.12179e-13
-6.65252e-12
-8.42432e-13
-2.1321e-14
5.86278e-11
4.7766e-15
4.55095e-14
0
4.54177e-11
-3.04044e-11
6.66571e-13
-4.00309e-11
-4.10731e-11
1.71116e-12
-3.01277e-13
1.90095e-11
1.92569e-11
-5.61591e-11
2.21684e-13
-2.67828e-11
-4.31079e-13
2.12278e-11
-1.86758e-11
7.57173e-12
7.02793e-12
2.09024e-12
-1.9696e-11
-7.84048e-13
-1.6745e-13
8.34141e-13
6.88368e-14
7.02807e-14
1.1291e-14
2.46744e-11
-1.90719e-11
5.9689e-13
-7.72425e-13
-3.88265e-12
3.71335e-13
6.53177e-12
-2.97701e-13
1.78729e-12
-2.67584e-12
3.7418e-11
3.88808e-11
1.93501e-11
3.40323e-11
-1.02191e-11
3.67073e-12
1.65095e-10
9.00769e-11
-7.4094e-11
8.13852e-11
2.90909e-12
7.55343e-13
-3.9678e-13
1.79877e-11
4.10922e-13
-2.54156e-12
5.31683e-11
6.42333e-13
3.75721e-11
1.53289e-13
-1.61689e-11
-4.38985e-11
3.25093e-13
-2.55186e-13
5.41548e-13
9.39188e-11
-3.0099e-13
4.388e-13
2.24117e-11
-3.72849e-11
3.47279e-12
-1.1997e-12
1.62583e-13
2.93049e-11
6.62692e-13
-9.25794e-11
7.42433e-14
-3.32809e-13
5.26813e-11
0
1.2769e-12
5.57683e-11
-1.50347e-12
1.80602e-12
8.99772e-13
-9.07506e-11
1.8092e-12
-1.39947e-13
0
-4.57792e-14
-1.85347e-13
-3.25079e-13
2.13844e-11
2.97326e-13
2.17241e-11
2.39955e-11
2.29392e-11
-7.46291e-13
-7.44387e-13
8.14267e-15
-1.38286e-12
1.70132e-13
-1.79588e-13
-3.4647e-13
2.46254e-11
1.93264e-11
2.08297e-11
4.46635e-13
2.09367e-11
5.20834e-11
0
-6.73994e-13
5.22762e-13
-2.96748e-13
3.26153e-12
-5.92869e-13
-2.97476e-13
-7.24229e-12
3.71803e-13
9.93167e-12
3.10037e-11
-2.10195e-11
5.31999e-12
1.23531e-11
3.83481e-11
-4.4333e-11
-8.39341e-13
-2.11045e-13
2.05844e-13
-3.90543e-11
1.17881e-12
1.37083e-11
-1.00768e-12
-3.63849e-11
-4.01976e-11
-1.71414e-12
4.31799e-11
-9.37955e-14
-4.77307e-13
1.54905e-13
-5.91464e-13
-1.51343e-11
-1.6433e-11
1.80778e-11
-1.62351e-11
-3.48544e-12
-2.9659e-12
1.9229e-13
1.0482e-13
1.19157e-13
8.28313e-11
-6.36473e-12
1.93692e-11
-1.09157e-11
1.23514e-11
-1.34777e-10
0
-2.02244e-11
2.18569e-11
1.06666e-12
1.20044e-10
-4.19172e-11
-4.24833e-11
-7.36534e-11
-3.78197e-13
-5.80745e-13
-3.76336e-11
-3.78114e-13
2.61495e-11
0
5.72989e-11
-7.65737e-11
-1.0921e-10
5.80931e-13
2.72943e-11
2.84143e-12
4.49701e-11
-1.87553e-11
-1.54033e-13
-3.71817e-11
4.79996e-11
-8.87153e-13
-3.73704e-11
4.1247e-11
-5.92627e-13
8.93446e-11
-1.78649e-12
-1.86303e-11
3.72179e-12
3.42574e-11
-1.62502e-14
-1.18416e-14
2.2001e-11
1.86311e-13
2.96259e-14
-8.02717e-12
-4.28192e-14
-2.97813e-13
1.84098e-11
5.93528e-13
-1.18548e-12
1.4803e-13
1.47989e-13
1.25789e-11
1.48024e-13
-6.17907e-11
-1.48378e-13
-7.42328e-13
-1.88414e-11
2.51731e-11
9.23247e-13
1.28147e-13
-1.30054e-12
-3.69416e-13
-1.94319e-11
2.87365e-13
1.47022e-11
4.45139e-13
-1.92582e-11
7.45356e-12
4.95028e-11
0
-4.37496e-14
6.90551e-14
-6.16529e-13
8.81762e-13
4.25471e-11
2.86072e-12
-1.86459e-11
6.10606e-11
2.23703e-14
-1.19803e-12
0
-9.43804e-13
2.53789e-11
1.39147e-12
9.54496e-12
-2.9601e-13
-1.92335e-11
2.10225e-11
1.31456e-12
1.9519e-14
-1.67922e-11
-1.92904e-14
1.57361e-11
-3.91547e-11
7.37077e-12
-3.9953e-12
5.91831e-13
-1.02932e-11
4.00054e-11
4.54652e-12
1.03531e-11
2.54557e-12
1.14978e-11
3.89406e-11
-1.18535e-11
-1.03587e-12
2.63443e-11
7.77246e-12
1.70116e-13
3.53137e-11
1.93693e-12
2.66731e-13
8.06774e-13
-2.00042e-11
-1.46346e-11
1.48027e-13
5.9265e-13
1.23937e-11
-4.96779e-11
-1.42063e-12
-2.94384e-13
1.475e-12
-5.14793e-11
1.31966e-11
-7.21395e-12
-1.77827e-11
-3.36806e-11
5.85959e-12
-4.96348e-11
-1.01628e-11
1.47022e-11
-2.13729e-11
2.07476e-11
7.01864e-12
5.99781e-12
-1.48395e-13
-1.94481e-11
-2.58168e-11
8.851e-14
-1.47993e-13
-2.16022e-11
-5.91861e-13
-2.17566e-11
0
-1.48379e-13
7.42413e-13
8.89222e-13
-1.4813e-13
-1.4802e-13
-2.30788e-11
9.76267e-12
0
-2.42623e-11
-1.98342e-11
-2.96252e-13
-1.48201e-13
3.00681e-11
7.25115e-12
-7.39135e-13
2.02432e-11
3.10355e-11
-7.38931e-13
2.80735e-11
2.95634e-13
-2.42695e-11
2.42914e-11
8.88005e-13
-2.9564e-13
-2.27601e-11
-8.85329e-13
-4.43077e-13
6.05525e-12
5.16401e-13
7.78265e-12
1.29296e-12
1.96857e-11
0
1.27067e-11
-6.4923e-12
-6.46461e-12
-2.0358e-12
-6.55106e-12
-8.49242e-13
3.94536e-12
-2.95427e-13
1.4792e-13
0
-1.56651e-11
9.93211e-12
1.48061e-13
2.80364e-11
-1.78011e-11
0
-7.37668e-13
-1.32957e-12
-6.80295e-12
-1.03534e-12
-1.53696e-11
-2.64361e-11
1.40647e-11
-3.87178e-11
-1.95838e-11
1.47877e-13
-7.5601e-12
9.89738e-12
1.99654e-11
-2.6627e-12
-2.21632e-11
-9.59017e-13
1.18524e-11
2.23268e-11
1.47876e-13
2.15423e-11
5.93297e-12
8.12371e-12
2.95839e-13
1.48007e-13
-1.8329e-11
-8.48324e-13
6.19437e-12
1.10646e-13
-3.68771e-12
3.31646e-13
6.74702e-12
-1.47794e-13
1.85006e-11
-1.48121e-13
-2.95963e-13
1.29659e-11
-2.95412e-13
-2.03856e-11
7.38577e-13
-1.47696e-13
-2.15771e-11
0
1.4812e-13
1.92655e-12
1.33306e-11
-1.90929e-11
-4.43738e-13
-2.05556e-11
2.52871e-11
1.93753e-11
2.95982e-13
0
4.44599e-13
-1.48056e-13
2.96026e-13
1.03569e-11
-4.43746e-13
2.95805e-13
-3.15027e-11
8.8746e-13
4.45324e-11
-1.48008e-13
2.96103e-13
1.86489e-11
-2.45592e-11
-5.91523e-13
-1.47845e-13
1.47847e-13
4.4353e-13
1.47835e-12
2.95733e-13
0
4.44011e-13
4.0685e-11
-1.47872e-13
2.12841e-11
-7.39012e-13
-1.4784e-13
-5.91341e-13
0
-4.78828e-11
-2.49888e-11
-3.10678e-12
2.95809e-13
-3.0159e-11
2.63082e-11
1.47854e-13
5.76964e-12
1.47929e-13
-4.43464e-13
-2.20166e-11
2.9563e-13
-2.95784e-13
0
-5.91364e-13
-3.03067e-11
-1.47938e-13
5.92257e-13
2.22082e-11
4.43688e-13
-2.36454e-11
-2.61616e-11
-2.0702e-11
-1.59719e-11
2.3654e-11
-1.86269e-11
-1.47928e-13
-5.92215e-13
2.961e-13
0
1.18222e-12
1.478e-13
5.91472e-13
-4.58497e-12
-2.9566e-13
-2.42364e-11
-1.90686e-11
7.39467e-13
4.43668e-13
-7.38905e-13
2.02397e-11
-2.57169e-11
-4.43652e-13
-7.39719e-13
-4.43584e-13
-2.66009e-11
-4.12249e-11
-2.9556e-13
2.02447e-11
-1.4773e-13
-4.43256e-13
-8.8704e-13
1.76038e-11
2.02764e-11
0
4.43571e-13
-2.95618e-13
2.95594e-13
0
-2.17251e-11
-2.36537e-11
0
-1.4799e-13
2.01342e-11
2.57521e-11
-1.47934e-13
7.39413e-13
0
1.47858e-13
-1.47875e-13
1.47923e-13
-2.95975e-13
-2.96081e-13
7.39884e-13
-2.08615e-11
0
2.2777e-11
-9.90888e-12
0
-7.39494e-13
-1.47918e-13
-2.04166e-11
-4.43912e-13
-3.00341e-11
-2.89929e-11
5.91576e-13
-2.80974e-12
-1.47879e-13
0
1.47872e-13
-1.47883e-13
-4.43747e-13
-1.77534e-11
-1.03544e-12
1.93739e-11
-1.47869e-13
1.47872e-13
2.588e-11
1.03516e-12
2.29181e-11
-1.47854e-12
-2.95761e-13
4.5852e-12
0
-1.30132e-11
-2.07018e-11
4.43686e-13
1.0355e-12
5.91693e-13
1.47877e-13
-2.26205e-11
1.56728e-11
2.95761e-13
1.47888e-13
0
1.47882e-13
1.47927e-13
-7.39868e-13
1.77562e-11
1.47904e-13
4.43554e-13
-1.47847e-13
6.65399e-12
1.03523e-12
-3.99259e-12
2.02594e-11
-5.02932e-12
0
1.90867e-11
2.66212e-12
2.0994e-11
-1.47841e-13
4.43593e-13
-1.89308e-11
-7.3936e-13
-2.61709e-11
-1.33088e-12
-2.27769e-11
-2.95788e-13
1.92207e-12
-1.90697e-11
2.05499e-11
2.95743e-13
2.95827e-13
-2.08515e-11
-1.99603e-11
-3.40038e-12
1.47847e-13
-1.47842e-13
7.39119e-13
-8.8696e-13
1.47859e-13
0
2.95887e-13
-2.36658e-12
-1.47873e-13
8.87101e-13
2.15849e-11
1.47835e-13
2.21755e-11
-1.47856e-13
2.7656e-11
2.18931e-11
-1.9236e-12
-1.34626e-11
1.90794e-11
-1.03512e-12
-1.4786e-12
-2.54314e-11
-1.90748e-11
-1.47891e-13
2.95851e-13
-2.95913e-13
1.33137e-12
-2.08562e-11
-9.90941e-12
0
-2.95768e-13
1.95204e-11
-7.39421e-13
-2.60292e-11
-1.47911e-13
2.95844e-13
0
-2.9581e-13
0
-2.9577e-12
-1.47884e-13
1.47881e-13
-1.47878e-13
-5.91513e-13
-1.47892e-13
-1.47904e-13
-2.14452e-11
1.84863e-11
-4.43651e-13
7.39447e-13
2.57343e-11
8.87363e-13
2.23297e-11
2.20326e-11
4.43624e-13
2.44011e-11
1.47886e-13
-1.47883e-13
-4.59935e-11
-2.95818e-13
-1.77512e-12
7.39604e-13
4.43679e-13
-2.2328e-11
1.56733e-11
-1.47867e-13
-2.95764e-13
2.95763e-13
0
0