/*--------------------------------*- C++ -*----------------------------------*\
  =========                 |
  \\      /  F ield         | OpenFOAM: The Open Source CFD Toolbox
   \\    /   O peration     | Website:  https://openfoam.org
    \\  /    A nd           | Version:  10
     \\/     M anipulation  |
\*---------------------------------------------------------------------------*/
FoamFile
{
    format      ascii;
    class       volScalarField;
    location    "0.8";
    object      gradTx;
}
// * * * * * * * * * * * * * * * * * * * * * * * * * * * * * * * * * * * * * //

dimensions      [0 -1 0 1 0 0 0];

internalField   nonuniform List<scalar> 
46825
(
1.49086e-13
-1.32471e-13
-1.79581e-11
-2.68677e-14
3.14134e-11
-7.10911e-13
-1.78398e-11
5.89933e-13
4.13953e-12
-4.47299e-13
2.98106e-13
1.32386e-13
1.78472e-13
1.0564e-12
8.46368e-14
-1.1225e-12
-1.85839e-11
2.55381e-13
1.94915e-11
2.98125e-13
-1.51883e-11
4.23422e-12
1.46656e-11
-1.94617e-11
-1.43461e-11
-9.99948e-14
-4.92741e-13
4.98547e-13
7.20227e-13
-1.48912e-13
-1.48691e-13
1.4107e-13
-1.67938e-11
-4.39778e-13
1.65991e-11
2.94461e-13
2.07122e-11
-4.16984e-13
-2.05655e-11
2.97386e-13
1.47065e-11
1.51958e-11
5.0739e-13
-3.76315e-13
1.15545e-13
-2.92915e-13
1.97217e-11
-3.62498e-13
-1.93963e-11
4.45643e-13
-1.45597e-11
-8.42179e-14
3.13716e-13
-1.43231e-11
1.72062e-11
-1.08827e-13
-1.72375e-11
-1.25597e-13
-1.53433e-13
2.97125e-13
1.29401e-11
6.60395e-12
1.37681e-12
-7.71664e-12
-1.3624e-11
5.91091e-13
-8.92454e-13
1.03244e-13
3.76544e-13
2.97462e-13
-4.46889e-13
-1.42844e-13
9.64383e-12
-1.55733e-13
-9.60295e-12
2.53793e-13
-1.53559e-11
7.78142e-14
1.56176e-11
0
1.491e-13
-1.36402e-11
-2.041e-13
1.34978e-11
2.18935e-13
-2.44031e-13
6.50762e-13
3.06012e-13
-5.81075e-13
-1.49101e-13
1.49119e-13
-1.23762e-15
-9.05901e-13
-6.98666e-14
5.94183e-13
-1.82756e-13
-4.87199e-13
-3.49144e-14
5.29112e-13
1.49126e-13
-2.98394e-13
-8.98411e-14
1.63537e-13
4.13459e-13
3.86081e-15
-1.67543e-14
1.3895e-11
-3.30763e-13
7.37021e-13
1.44739e-11
0
-5.95427e-14
-1.82602e-11
1.4052e-11
1.8212e-11
-1.42482e-11
4.87635e-14
4.30346e-13
7.39383e-14
1.49332e-13
0
3.66579e-12
2.93083e-11
-2.97286e-11
8.90881e-13
7.85405e-14
-4.99388e-13
-5.11482e-11
8.64094e-12
-1.49297e-13
-1.49194e-13
-6.28021e-12
1.14907e-12
3.49642e-11
-8.49395e-12
-2.75952e-11
-1.3195e-13
7.73356e-13
-2.24291e-13
0
2.98316e-13
6.24418e-12
-3.1454e-11
3.07598e-11
6.3559e-13
-3.55971e-11
3.62281e-11
-3.06138e-11
5.42154e-12
-1.04409e-12
-1.49173e-13
-4.00122e-12
8.32999e-12
-5.44456e-13
-4.17177e-13
4.99441e-13
-8.10013e-14
3.75483e-13
4.11329e-13
2.98332e-13
1.41774e-11
-4.74934e-12
-1.76551e-11
7.37421e-13
4.02301e-11
-4.04811e-11
-2.75648e-13
2.9001e-12
-7.47898e-13
0
0
5.98759e-12
-9.56249e-12
-1.62154e-12
2.05534e-12
-3.09958e-13
-8.03054e-14
-4.62422e-15
-9.87934e-12
2.44914e-11
5.07825e-12
5.37253e-12
-8.28875e-15
-1.4005e-12
1.47985e-11
1.09594e-12
-3.02161e-11
8.27589e-14
1.57527e-11
4.48082e-13
2.98441e-13
-5.36732e-14
-4.59298e-13
-3.27603e-13
-7.08003e-14
7.9113e-13
2.03454e-13
-2.15123e-13
-1.56877e-11
-1.53706e-11
-2.07337e-11
-2.03685e-12
6.46342e-13
-1.88538e-11
-7.33583e-13
2.29932e-11
4.55487e-14
-2.32675e-11
-8.88615e-14
1.49191e-13
2.65605e-11
2.69524e-11
-2.22343e-13
1.86045e-13
-2.79555e-13
-3.32432e-13
-3.7306e-13
2.95232e-11
-2.92129e-11
-1.49247e-13
-4.47221e-12
-4.56389e-12
9.22341e-13
-8.98686e-13
2.09286e-13
2.22444e-13
-7.09019e-13
-2.87232e-11
2.92457e-11
2.98189e-13
-3.20263e-11
-2.53768e-11
2.58236e-10
-2.24845e-07
-1.38803e-08
3.19947e-09
4.02509e-08
2.45953e-08
5.29015e-11
4.0222e-11
1.49007e-13
5.59437e-11
4.0742e-10
-2.79091e-07
6.52974e-08
-1.47201e-08
-1.84891e-07
3.95879e-08
-1.94103e-13
-3.23349e-11
1.0431e-11
4.62683e-14
4.96061e-10
-2.85994e-07
6.96577e-08
-1.581e-08
-1.93764e-07
4.04978e-08
-5.71528e-14
-2.98014e-13
-1.92188e-11
1.19519e-11
4.39741e-10
-2.48976e-07
5.63676e-08
-1.2562e-08
-1.57731e-07
3.58887e-08
-6.61026e-13
-6.40574e-12
7.60479e-12
-3.27535e-11
6.73076e-11
-3.33074e-09
-2.46634e-09
5.63547e-10
6.70465e-09
-6.95407e-11
-1.92613e-13
1.86383e-11
2.98511e-13
2.78577e-13
-4.47636e-11
4.55527e-11
-1.02211e-12
1.86454e-13
7.0998e-13
-3.49728e-11
3.42622e-11
-5.37328e-12
1.49171e-13
-1.48413e-13
4.61549e-14
-2.03446e-13
1.69266e-11
-1.39969e-13
-1.639e-11
-9.52158e-14
-7.67447e-14
1.49187e-13
-1.75594e-11
4.26524e-13
1.69365e-11
-2.96508e-13
1.36667e-11
1.36757e-11
-1.37637e-11
-1.24847e-11
-1.15047e-13
-1.04198e-12
3.84747e-11
3.78583e-11
8.87972e-13
-6.86366e-11
-1.37079e-11
2.81173e-12
6.86541e-11
1.51893e-11
-5.067e-13
-4.45838e-13
-7.37934e-13
1.5025e-11
-3.91346e-09
-3.08333e-07
-9.15122e-09
-5.84611e-10
1.52517e-08
8.01357e-07
9.07091e-08
-2.30319e-11
-2.03873e-11
1.08934e-08
7.81876e-05
-0.980947
-0.00686123
0.000435965
0.0184923
0.81855
4.2807e-06
8.36205e-12
-2.29968e-11
1.01582e-08
8.0872e-05
-1.52366
-0.0232112
0.00137788
0.0657896
1.05
3.84232e-06
-2.92976e-12
7.32396e-12
1.01016e-08
8.12216e-05
-1.53151
-0.0242423
0.0014546
0.0676137
1.05374
3.81976e-06
2.72446e-11
-2.78696e-12
1.04917e-08
8.01082e-05
-1.50526
-0.0239759
0.0013728
0.0670125
1.03635
3.90723e-06
4.98673e-12
5.60941e-12
8.03496e-09
7.92317e-05
0.0177095
-0.0140955
-0.0168229
-0.0190904
-0.0584337
2.54535e-06
-3.54284e-12
1.48588e-13
-1.20539e-13
8.15988e-09
2.61344e-08
1.15675e-09
-1.67692e-10
-5.27256e-09
-4.59449e-08
-2.12938e-11
4.45827e-12
-1.53273e-11
-8.11778e-14
1.60302e-11
-1.63487e-13
-8.68929e-14
2.27713e-13
1.3201e-11
-3.33581e-13
-1.25963e-11
5.95335e-13
0
1.68792e-11
2.08001e-11
4.59823e-12
-2.02027e-11
-4.31589e-12
-6.24306e-13
-7.76108e-13
1.23784e-13
-1.62051e-11
2.96633e-13
1.52941e-12
5.18639e-11
4.44826e-09
1.4342e-09
-1.44542e-10
-2.93699e-09
5.931e-10
-8.36121e-11
7.71641e-12
3.08481e-12
-8.89642e-10
-1.90126e-06
-0.00331098
0.00102918
0.000174286
-0.00102637
0.00121274
6.5226e-07
-1.93976e-11
-5.37046e-11
-2.1985e-07
-0.945874
0.000574846
4.92173e-11
-7.86407e-11
-4.53359e-07
-1.14939
0.00117248
6.67931e-11
-6.10076e-11
-4.36318e-07
-1.1517
0.00117559
9.22296e-11
-5.63282e-11
-4.86933e-07
-1.1465
0.00116266
5.68935e-11
2.35108e-12
1.65763e-08
0.0132897
-6.54592e-05
-1.10195e-11
2.35908e-11
8.62648e-12
4.05698e-08
1.66823e-05
1.20857e-06
-2.09141e-07
-5.22911e-06
2.57317e-06
5.4082e-10
-1.48395e-11
1.4862e-12
-1.41564e-11
-4.5161e-13
2.05133e-11
-9.02718e-14
-4.48653e-12
2.24862e-12
-8.33549e-13
7.46473e-12
1.02569e-11
-1.44205e-11
1.71432e-11
1.45564e-11
-1.71241e-11
3.28956e-13
-2.11427e-13
-3.28609e-13
3.92625e-13
-4.42609e-14
-1.4871e-13
-1.90061e-11
-2.47139e-11
4.93041e-11
3.75204e-09
1.89848e-09
-1.44197e-10
-3.93246e-09
6.56463e-10
-2.87813e-14
4.45611e-13
4.11724e-12
-9.85472e-10
-2.06717e-06
0.0320523
0.000889768
0.000182188
-0.00157959
0.00133293
7.00933e-07
-1.02928e-12
-4.48224e-11
-1.89574e-07
-0.971366
0.000962733
2.21919e-11
-6.84085e-11
-4.83964e-07
-1.19974
0.00127437
9.35216e-11
-5.31144e-11
-4.58745e-07
-1.20305
0.00127929
9.62624e-11
-2.97444e-11
-5.12914e-07
-1.19576
0.0012561
3.40834e-11
8.09063e-12
1.82623e-08
0.0145081
-6.96983e-05
-7.20536e-12
3.46112e-11
-5.75986e-13
4.29457e-08
1.95951e-05
1.64425e-06
-2.9632e-07
-6.8493e-06
2.89351e-06
6.57533e-10
5.94221e-13
1.20422e-11
-1.83395e-11
-1.23531e-11
1.89054e-11
6.74604e-13
-4.45882e-13
-2.01428e-11
-1.39881e-11
3.45803e-11
2.92933e-11
-2.97499e-13
3.63521e-11
1.42218e-11
-2.16963e-11
1.15785e-13
-1.93118e-11
-1.31525e-13
5.22841e-12
2.16461e-14
1.41357e-11
-1.81308e-11
-2.83489e-11
1.66619e-11
3.57413e-09
1.86095e-09
-1.54608e-10
-3.9401e-09
6.67484e-10
7.69191e-14
0
5.7396e-12
-1.0533e-09
-2.09142e-06
0.0322546
0.000890754
0.000122132
-0.00158229
0.00134132
7.11113e-07
-1.03007e-12
-6.15417e-11
-1.71815e-07
-0.972642
0.000968821
4.35346e-11
-6.82964e-11
-4.55152e-07
-1.20221
0.00127968
6.67059e-11
-6.91695e-11
-4.37396e-07
-1.20538
0.00128422
7.84069e-11
-3.92009e-11
-4.94517e-07
-1.198
0.00125981
4.80462e-11
1.76675e-12
1.83281e-08
0.014533
-6.98934e-05
-2.79683e-12
1.4868e-13
4.37732e-14
4.31675e-08
1.9824e-05
1.732e-06
-2.93724e-07
-6.92447e-06
2.90013e-06
6.64662e-10
-4.90705e-12
0
1.98068e-11
1.9025e-13
-3.95554e-11
-3.84966e-13
2.0899e-11
5.18801e-12
-3.52047e-13
-4.96253e-12
0
2.26213e-11
-3.81799e-13
-2.28325e-11
7.63656e-13
1.992e-13
-1.10179e-12
-1.75634e-11
1.74771e-11
1.75447e-11
-1.69707e-11
2.23043e-12
-6.28757e-13
5.17204e-12
3.57234e-09
1.8865e-09
-2.24398e-10
-3.878e-09
6.5325e-10
-1.10468e-13
1.48743e-13
3.0482e-11
8.04711e-11
-2.05337e-06
0.0322798
0.000890898
6.19229e-05
-0.00164209
0.00134131
7.04937e-07
3.68079e-12
-4.64769e-11
-1.72726e-07
-0.972707
0.000969709
4.8062e-11
-4.49362e-11
-4.55366e-07
-1.20228
0.00128015
7.06536e-11
-6.43035e-11
-4.36361e-07
-1.20562
0.00128446
5.98267e-11
-4.82338e-11
-4.9346e-07
-1.19805
0.00124308
6.01513e-11
1.32588e-12
1.83252e-08
0.0145342
-2.5128e-05
5.74585e-12
3.42164e-12
-7.45042e-12
4.30604e-08
1.98327e-05
1.74179e-06
-2.88192e-07
-6.9517e-06
2.89981e-06
6.92805e-10
5.20772e-12
-1.57766e-11
-2.86606e-12
1.57176e-11
-1.97446e-11
1.20842e-13
2.24619e-11
-8.23552e-13
4.24153e-13
3.8038e-13
-1.48862e-13
-1.89078e-11
-1.94027e-11
1.75439e-11
1.64605e-11
-1.75935e-11
3.55858e-12
1.27788e-13
-1.99977e-11
-1.10445e-12
-1.48922e-13
-1.48752e-13
6.46746e-14
3.41131e-12
3.7054e-09
1.81458e-09
-1.41878e-10
-3.85901e-09
6.07662e-10
2.076e-11
-6.24952e-12
1.82703e-11
1.09453e-10
-2.05908e-06
0.0322429
0.000890391
0.000122085
-0.00164121
0.00134185
7.08851e-07
-2.20984e-12
-6.64492e-11
-1.85734e-07
-0.972347
0.000968715
4.62289e-11
-6.13565e-11
-4.69205e-07
-1.20149
0.00127722
6.22237e-11
-9.45039e-11
-4.50218e-07
-1.20465
0.00128129
4.80485e-11
-5.41073e-11
-5.09712e-07
-1.19726
0.00125361
1.99261e-11
0
1.83043e-08
0.0145179
-0.000175744
5.74894e-12
2.97649e-13
-2.05757e-12
4.30554e-08
1.96267e-05
1.71007e-06
-2.43783e-07
-6.79951e-06
2.87916e-06
6.31223e-10
5.95377e-12
0
1.38648e-11
-1.73213e-13
-1.36369e-11
5.58726e-13
-1.53035e-13
-3.09484e-13
1.53754e-11
3.92428e-14
-1.53382e-11
-2.97844e-13
-2.18203e-13
6.56357e-13
1.54071e-11
-2.47276e-13
-1.51126e-11
-1.28645e-13
2.79415e-14
-1.17021e-13
-1.4896e-13
2.97597e-13
-1.02543e-12
-3.08665e-11
1.41226e-09
3.82791e-10
-3.93462e-12
-1.02733e-09
4.64405e-10
5.78349e-11
-1.63725e-11
1.8432e-11
7.18197e-11
-2.01561e-06
0.0273036
0.000695309
6.00698e-05
-0.00120371
0.00129877
6.88892e-07
-1.23855e-11
-1.03462e-11
-8.00329e-08
-0.956558
0.000832955
-1.60269e-12
-4.78988e-12
-1.10369e-07
-1.16689
0.000948036
-3.62853e-12
-3.19353e-12
-9.34333e-08
-1.16941
0.000949492
3.33849e-12
1.89487e-11
-1.59562e-07
-1.16378
0.000946756
-1.0201e-12
-1.47514e-13
1.53359e-08
0.0135529
-6.19536e-05
5.01473e-12
1.48861e-13
3.12994e-11
3.82468e-08
1.39333e-05
1.005e-06
-1.32492e-07
-4.01317e-06
2.2409e-06
5.92314e-10
0
0
-5.90019e-14
-1.99456e-11
-6.5706e-13
2.10044e-11
8.69533e-13
-2.45616e-11
-2.373e-13
2.41111e-11
0
-3.58952e-11
-1.53266e-11
2.12228e-11
5.0013e-13
5.58539e-14
2.14793e-11
-5.74951e-14
-2.2111e-11
-8.50463e-14
0
-3.11042e-11
-2.48236e-11
-1.78615e-12
-8.82162e-12
-2.04971e-12
1.59033e-13
4.64932e-12
8.83268e-13
-1.30956e-12
-5.35834e-12
-6.63518e-12
3.9388e-11
-1.8141e-07
2.37632e-06
6.82147e-08
5.64304e-09
-1.32633e-07
-1.07344e-05
3.02204e-08
-6.04552e-12
-6.26548e-12
8.08107e-10
-0.00031777
-1.03401e-06
2.38957e-11
-1.45149e-13
7.57053e-10
-0.000326858
-1.08392e-06
1.45143e-13
1.74189e-11
7.49568e-10
-0.000327192
-1.08713e-06
6.24143e-12
1.99662e-11
7.78978e-10
-0.000326388
-1.07222e-06
6.55745e-12
-5.89996e-13
7.94466e-11
-0.000293306
-4.40127e-07
-6.48924e-12
1.19101e-12
-1.82811e-11
7.03221e-10
-9.7972e-09
-7.34775e-10
1.11751e-10
2.59644e-09
1.07607e-08
-2.68524e-11
2.9776e-13
0
-3.4126e-13
4.49268e-14
3.56582e-13
-7.44962e-12
-5.64118e-14
6.93771e-12
1.14047e-13
1.31377e-12
2.97928e-13
0
1.59905e-14
-2.64827e-14
2.34248e-11
1.50657e-11
-2.30467e-11
1.24799e-12
-1.46999e-11
-1.73617e-11
1.35551e-11
8.9291e-13
-1.10783e-13
1.48923e-12
9.78875e-13
-1.00591e-12
-2.73154e-13
2.9874e-11
4.41305e-12
-3.44847e-11
5.20874e-12
-5.89377e-12
-2.29476e-11
6.80687e-11
5.64985e-11
-1.37365e-12
-6.72138e-11
-1.51018e-12
-4.62761e-11
1.0335e-11
-6.18893e-12
-6.39732e-12
1.35428e-11
-8.20024e-13
-1.08067e-11
-2.1956e-11
-3.11149e-11
-2.5079e-11
1.11532e-11
3.13752e-11
-6.07813e-12
2.89456e-13
-3.71496e-13
1.51134e-11
2.63785e-12
-1.44721e-13
0
-8.87118e-14
6.48668e-12
2.91421e-13
-2.47187e-11
-4.06796e-11
-1.51158e-11
-4.74553e-12
6.29185e-12
-1.59161e-11
-1.10158e-11
1.22196e-11
-6.0268e-13
-1.93902e-12
4.21022e-12
-1.98954e-12
-7.86033e-13
1.80539e-13
-8.88564e-14
-8.93128e-12
4.46836e-13
6.17648e-14
-7.79982e-13
1.05364e-13
-2.7417e-14
-7.22867e-13
-1.69245e-13
-1.83978e-11
1.91132e-13
1.90662e-11
-3.35103e-11
-3.64395e-13
3.31829e-11
-1.38814e-11
1.34207e-11
1.3798e-11
-1.28849e-11
-2.71363e-13
1.7053e-13
-1.48942e-13
4.46412e-12
2.22389e-13
-3.00873e-11
3.01607e-11
2.29925e-13
-1.84179e-13
-4.43319e-11
5.17849e-11
-5.88093e-12
4.61277e-12
2.94572e-13
-9.50026e-13
7.6142e-11
2.90536e-12
-5.89792e-13
8.92534e-13
-1.40934e-12
-2.6375e-12
1.20929e-12
-7.6594e-12
-1.45253e-13
4.31888e-13
1.49369e-12
-5.83904e-13
0
0
1.26753e-12
2.852e-11
1.46454e-13
-2.89052e-13
-1.15629e-12
2.08139e-13
-2.50252e-12
1.73176e-11
-1.06952e-11
-4.35818e-13
-1.23804e-13
9.4415e-13
9.18917e-12
1.96104e-11
-2.94653e-13
2.23261e-13
2.44859e-11
1.25878e-11
-2.82831e-11
-1.57771e-11
-2.92751e-11
-2.92868e-13
-1.49264e-11
-1.9837e-13
2.4271e-13
-8.10797e-13
8.372e-13
-2.83161e-13
-1.04183e-12
-1.51912e-11
-3.1748e-11
-1.92185e-13
3.11598e-11
1.3898e-11
-1.47248e-11
-1.25853e-11
1.45565e-13
-1.16804e-12
-1.4894e-13
7.44638e-13
6.18146e-13
-4.60327e-15
-9.67458e-12
2.23389e-13
9.9158e-12
1.49791e-11
1.88561e-11
-1.54844e-11
-1.93611e-11
0
-1.00667e-12
5.95795e-13
3.12429e-11
-3.05524e-11
-2.90211e-11
2.85153e-11
2.05952e-12
-1.97367e-12
2.47001e-11
4.86002e-12
-9.16403e-12
-2.10966e-12
4.06824e-12
1.34502e-10
-5.25252e-11
3.80152e-13
2.52053e-13
9.0888e-12
-2.94546e-13
1.45225e-13
-5.04636e-13
9.73248e-11
1.38085e-11
2.28003e-11
2.0518e-11
1.17022e-11
-9.79776e-13
2.76959e-11
-1.15592e-11
5.77993e-13
-1.85312e-12
6.93951e-12
-1.21871e-11
6.64672e-12
-5.3739e-12
4.02365e-11
-2.75595e-11
1.09443e-11
1.46686e-11
1.06059e-11
-9.2904e-12
4.32159e-13
-9.21676e-12
1.91482e-12
-1.94966e-11
-2.28362e-11
-1.20785e-12
1.16503e-12
-7.05759e-13
4.93196e-13
-2.87982e-11
2.96699e-11
-5.32678e-13
0
0
1.61874e-13
1.85822e-13
-4.58659e-13
-7.52221e-13
-1.86194e-11
1.75745e-11
2.1172e-11
-1.67265e-11
-1.93609e-12
2.38293e-12
2.62913e-12
7.38609e-13
1.97805e-11
-1.87763e-14
-7.88842e-12
2.17928e-13
-1.20221e-11
1.69607e-11
1.683e-11
-4.91032e-12
8.59858e-13
2.97885e-13
4.13363e-11
-4.14213e-11
2.9273e-11
-2.89548e-11
0
2.85304e-11
-4.91039e-12
3.41705e-11
2.87792e-11
5.73256e-11
0
0
-7.38235e-13
1.44267e-10
-8.36177e-11
3.16193e-11
-7.80609e-12
-8.86131e-12
-1.70084e-12
-1.59587e-12
-1.43169e-11
6.6822e-12
-6.21568e-12
3.04649e-11
-6.64775e-11
-1.12079e-11
5.05926e-12
-3.62837e-11
-1.36643e-11
8.61317e-11
-7.04614e-12
1.44554e-13
-7.26411e-13
-2.80735e-13
-4.91123e-13
-6.20012e-12
1.16222e-12
1.95931e-11
-3.28193e-11
6.20829e-11
-3.70355e-11
3.38809e-11
2.90219e-11
2.0835e-11
4.04604e-11
-4.03595e-11
4.44426e-11
-9.03152e-11
4.48054e-11
-4.57531e-15
6.48059e-13
-1.68175e-11
0
5.20218e-13
-1.76414e-11
-2.80598e-13
3.97592e-11
1.21256e-13
-2.19682e-11
-1.80661e-13
-1.4752e-13
0
5.95762e-13
3.10915e-13
6.40781e-13
-8.63741e-14
-4.0279e-13
-1.55259e-12
1.47457e-13
1.76542e-12
1.45806e-11
1.4746e-11
-1.53267e-11
4.8268e-12
-3.45413e-11
1.14852e-12
2.6141e-11
-2.73843e-11
5.16394e-13
-2.9411e-13
-3.50477e-13
-7.14311e-12
2.01863e-11
1.99079e-11
1.50264e-13
0
-2.3576e-12
-1.54926e-12
5.74632e-13
3.90542e-12
1.19688e-11
0
-4.36341e-13
4.05277e-13
2.17807e-13
-7.26042e-14
7.85428e-12
1.44808e-13
2.64431e-13
3.04601e-11
1.26564e-11
-1.44808e-13
-4.92367e-12
9.86405e-12
3.98431e-12
-1.29726e-11
4.05474e-12
-2.5893e-11
-1.97771e-11
3.83706e-12
3.64306e-13
0
-4.42144e-12
8.41015e-12
3.75754e-11
-4.66629e-11
1.20847e-11
-1.89034e-11
-1.9912e-11
-6.03474e-13
-4.08588e-11
4.06422e-11
1.58748e-13
-2.93154e-13
-4.52524e-13
9.91566e-14
-4.46525e-13
2.59169e-11
3.883e-13
-2.59505e-11
-2.17573e-11
-3.36345e-13
2.11052e-11
5.88895e-13
2.19417e-11
-8.52046e-14
-2.23422e-11
-1.48961e-13
2.3103e-13
-1.81308e-11
-1.77263e-13
1.78675e-11
-2.33734e-13
7.85838e-14
5.87723e-14
-1.21336e-13
-2.9797e-13
1.19063e-12
5.01362e-14
4.52427e-11
-7.99696e-11
3.46331e-11
-3.51108e-11
3.61443e-11
1.16363e-12
-2.43244e-12
-4.91234e-12
0
-1.25095e-12
2.2301e-12
-1.00814e-12
1.27551e-10
-1.57104e-12
2.67402e-14
1.85808e-13
-9.30665e-12
-1.47476e-13
-5.6846e-12
-4.63899e-13
-2.20273e-11
3.13636e-11
-4.95589e-12
2.90432e-13
1.67767e-13
4.33047e-12
-7.81291e-12
-1.01652e-12
-8.71334e-13
-9.98759e-13
-6.3707e-11
9.74526e-12
5.22798e-12
1.89508e-12
-5.90774e-12
-2.29447e-11
-9.0296e-12
1.45771e-13
-9.14571e-12
9.24336e-12
2.14965e-12
1.82598e-12
-9.14502e-12
1.04228e-12
-1.05461e-11
1.26397e-11
-4.50978e-12
4.08785e-13
-4.52779e-13
-4.92748e-11
5.07641e-11
2.4845e-13
-1.92071e-11
0
-2.15072e-13
1.95021e-13
-1.36233e-13
1.72653e-14
2.40561e-11
1.70886e-11
-2.4364e-11
-1.80748e-11
-4.46956e-13
5.95862e-13
8.71046e-13
-6.84414e-13
-1.44433e-13
4.60438e-13
2.01162e-14
-1.37702e-13
-4.60958e-15
-1.59231e-13
-2.98006e-13
-1.87527e-11
-1.84528e-11
-5.95658e-13
1.78526e-13
-1.52663e-14
5.635e-13
5.90129e-13
2.94504e-13
-1.36066e-13
1.44418e-11
1.17966e-11
2.23509e-12
-1.4741e-12
-1.63895e-12
-1.35981e-12
-5.96304e-11
6.68329e-12
4.48402e-15
2.01861e-12
-4.86692e-12
1.45656e-13
-2.25174e-13
-2.22605e-11
8.0215e-13
-2.35973e-11
-5.36664e-12
-3.0475e-11
4.97522e-11
4.43705e-11
5.80196e-13
0
-6.66585e-13
-1.37227e-11
1.62432e-11
-3.19116e-12
-1.45662e-12
3.57455e-12
-2.42546e-11
-1.99709e-11
-2.0101e-11
1.12101e-11
-8.80745e-12
-8.60965e-13
1.33245e-11
6.7848e-12
5.95693e-12
2.39247e-13
-1.03349e-12
4.52461e-13
8.90728e-16
-3.80086e-11
3.77247e-11
2.46067e-11
-2.47281e-11
2.97843e-13
-2.56281e-11
-6.3189e-13
2.56461e-11
1.768e-13
-1.66852e-13
4.03107e-13
-2.17039e-13
-2.46722e-11
1.10907e-13
2.47341e-11
0
-9.93086e-14
1.64461e-13
1.75284e-13
1.92884e-14
-8.20911e-14
-3.55516e-13
3.71376e-14
-5.02564e-14
1.48993e-13
5.80304e-12
2.00189e-15
2.88994e-11
-2.83182e-11
1.23883e-12
-2.08403e-12
5.23287e-13
1.17698e-12
-1.06768e-13
-2.66453e-11
7.80997e-12
-1.05378e-11
1.43159e-12
-1.73728e-12
5.64041e-13
1.04659e-13
6.67734e-13
2.56386e-13
0
-1.48845e-11
1.45381e-13
-2.81576e-11
6.56132e-11
-4.20078e-12
-1.91901e-11
-4.19523e-12
2.97914e-11
-3.90334e-11
9.80161e-12
7.23337e-12
1.02714e-11
1.0976e-13
-9.4093e-14
-2.11808e-11
-1.90965e-11
1.45374e-13
-6.93144e-13
3.09454e-11
2.65954e-11
1.45378e-13
-1.47386e-13
-1.92783e-13
1.09373e-11
9.21628e-12
1.65077e-11
2.93318e-11
2.2979e-11
2.11311e-12
-2.23172e-12
1.33666e-12
-1.24609e-13
-1.833e-13
-3.31547e-13
-2.07094e-13
2.01015e-11
-2.68192e-12
-1.83444e-11
4.1793e-12
3.21811e-13
-3.34285e-11
-1.80825e-14
-1.11574e-12
-1.439e-15
3.32733e-11
1.8178e-11
0
1.66945e-11
3.2973e-13
-1.64659e-11
-3.28998e-14
-5.58672e-13
-5.56244e-14
1.93411e-13
-1.30765e-13
2.98008e-13
1.45816e-11
-4.75033e-11
3.12862e-11
-5.27116e-13
8.21644e-14
-3.29993e-13
-4.45042e-11
4.34585e-11
1.18107e-12
-5.65653e-12
-1.38487e-11
-2.59346e-12
9.78279e-13
-4.86939e-11
-7.28438e-11
8.12762e-12
2.84359e-12
-6.6087e-11
5.88228e-11
-6.48243e-12
-1.45302e-13
6.95226e-13
2.57018e-11
1.45321e-12
1.90325e-11
2.89105e-13
-1.40098e-12
1.02905e-12
-4.09456e-11
5.49311e-12
-4.77035e-12
3.3733e-11
-1.90424e-11
9.39437e-12
7.08341e-12
2.47e-12
7.16452e-12
1.70097e-12
5.68221e-11
-1.84529e-11
-1.47352e-13
5.6632e-13
-2.01639e-11
1.51507e-11
-2.94725e-13
-4.46657e-12
-1.10361e-12
7.31357e-14
4.49682e-13
-5.24341e-13
3.76802e-11
-3.70695e-11
-6.4063e-11
6.55853e-11
-4.467e-13
-2.98011e-13
1.44145e-11
-2.0538e-11
-1.46605e-11
1.79277e-11
-5.49109e-14
-1.94921e-11
-2.00408e-11
2.2979e-11
2.04143e-11
-4.47031e-13
2.57437e-14
-1.73008e-11
1.36997e-11
1.26175e-12
-4.69349e-11
1.67249e-11
3.28279e-11
1.61143e-11
1.5651e-11
-4.763e-12
8.7459e-13
-1.48984e-12
-1.75442e-13
1.65271e-13
-4.71475e-13
-2.59699e-13
-1.15052e-12
1.87002e-12
2.32293e-11
-4.71615e-12
5.97518e-11
-8.12018e-11
-7.07255e-11
8.05546e-13
1.62471e-12
-7.06562e-11
2.18721e-12
-9.67308e-14
-1.62117e-11
-3.7797e-12
-3.13553e-12
8.21807e-11
8.86691e-12
-1.88958e-12
2.89271e-13
3.60794e-11
-1.72267e-11
1.15017e-11
-5.64079e-12
5.93021e-12
5.23804e-14
2.05408e-11
1.19644e-11
1.44643e-13
-2.90731e-13
-2.95227e-11
4.01634e-11
-9.55602e-12
0
1.47405e-13
-1.17383e-13
-1.33952e-11
3.11762e-12
-1.31201e-11
4.37864e-11
3.46838e-11
9.05971e-13
-5.87997e-12
5.74418e-12
2.29384e-15
9.47182e-13
-1.07524e-12
-3.11093e-11
9.53273e-12
0
3.57879e-13
1.78475e-13
2.41308e-14
-1.34039e-13
-4.77253e-13
3.8325e-13
7.10133e-13
-3.48437e-13
-5.96255e-13
4.47369e-13
-1.81076e-13
-1.8783e-11
-1.42229e-11
1.82695e-11
1.41654e-11
-1.42665e-11
-3.24587e-11
-2.9681e-12
1.49161e-11
5.81018e-12
-5.60098e-13
1.19163e-12
-2.7874e-13
-1.26604e-13
-2.72805e-13
-1.57022e-13
2.41604e-13
-3.38943e-11
1.31147e-11
3.21743e-11
2.68331e-11
-4.32137e-14
1.15909e-12
-3.77701e-11
7.12299e-11
8.98164e-13
3.50995e-13
2.26957e-12
-3.24724e-12
-2.08381e-11
-4.08989e-12
-1.05426e-10
-1.34332e-11
-1.89417e-11
-1.94396e-11
-2.42305e-11
7.92117e-13
-3.78283e-11
1.4506e-13
-1.98752e-11
-4.10024e-12
-4.50723e-13
-2.40444e-11
5.80267e-13
1.45719e-13
2.84085e-11
-3.94386e-11
-4.80933e-12
-4.80884e-12
1.32857e-11
3.13024e-11
6.30701e-11
-3.10113e-11
7.38182e-13
-5.66434e-12
-6.42655e-13
3.01839e-13
-2.9271e-11
2.95451e-11
-3.34952e-13
-2.87741e-11
6.7852e-11
-3.96659e-11
0
3.41578e-11
1.74758e-11
3.7313e-12
-1.5367e-14
-3.59885e-11
1.37907e-11
1.58574e-11
-1.91762e-11
-1.33725e-12
3.43097e-12
-1.49254e-13
2.00369e-13
-1.43305e-13
-4.98564e-13
-1.4159e-13
-4.43121e-14
1.45116e-11
1.45442e-11
-1.52255e-11
-1.50771e-11
-5.52106e-12
-1.35679e-11
-1.07264e-11
1.00205e-11
8.89217e-14
2.16181e-13
-1.78979e-14
-1.12065e-13
-8.85945e-13
-1.77609e-11
3.42196e-11
-7.279e-12
5.43694e-11
-5.78388e-13
6.86878e-13
6.17982e-11
-5.47498e-14
3.92352e-12
1.79548e-13
4.44542e-13
0
-9.01175e-14
2.62572e-13
2.02955e-12
6.45835e-12
7.31788e-13
3.02537e-11
2.50224e-11
-2.66609e-11
-1.09772e-11
0
5.3419e-13
-8.38908e-13
-1.46326e-13
-1.46374e-13
2.65664e-11
2.20479e-11
2.73676e-13
3.17355e-11
-6.45942e-12
2.44478e-11
2.88603e-11
-1.43637e-13
-4.50566e-11
1.17093e-11
1.88086e-11
1.89028e-11
3.58768e-11
-7.6601e-11
4.07041e-11
-3.9154e-14
3.76463e-13
-9.45031e-13
2.87508e-11
8.95873e-13
2.98556e-13
4.77587e-13
3.28764e-13
3.61647e-13
-5.80745e-13
-1.37716e-13
-1.76059e-11
-1.70463e-11
1.79131e-11
1.70205e-11
0
7.88809e-13
2.74578e-13
-1.06664e-12
-1.03418e-13
9.11408e-14
3.76658e-13
-1.36025e-13
-3.98657e-13
0
7.31371e-12
3.10779e-11
1.19551e-12
-1.41781e-13
1.07771e-12
-1.59528e-12
5.94631e-13
3.5729e-13
-1.10112e-13
0
-6.3952e-12
3.78404e-11
5.39987e-11
1.24026e-12
6.79236e-11
4.75546e-11
1.54065e-12
9.6743e-13
6.04275e-11
-1.33922e-12
6.66434e-12
-1.77055e-11
-3.55082e-11
3.66687e-11
-4.59446e-12
-7.69394e-12
7.8038e-12
-1.01505e-10
1.38848e-11
-9.47744e-12
2.95935e-13
9.66884e-13
-1.93326e-11
1.58558e-11
-4.88726e-12
0
3.71087e-13
4.90585e-11
-6.58766e-12
5.04052e-12
2.64798e-11
2.54911e-11
1.87099e-11
3.71216e-13
0
1.49303e-13
-1.65611e-13
-2.75098e-11
2.59119e-11
3.22229e-12
-3.03538e-11
2.91149e-11
1.32969e-12
-1.79625e-14
1.88187e-11
-2.25325e-11
2.97666e-12
2.54103e-11
-3.09592e-13
1.39368e-14
-5.78635e-14
5.68883e-12
-2.53582e-13
-5.35002e-12
0
1.38456e-11
1.49468e-11
9.23733e-13
-3.71776e-13
-7.90008e-13
1.96607e-14
3.2971e-11
3.21256e-13
-3.267e-11
1.48878e-13
0
1.25791e-12
-1.60789e-13
-2.3707e-12
1.18661e-12
5.73356e-13
-2.0703e-13
3.32331e-13
-5.21163e-13
4.91241e-12
-9.95267e-12
5.17517e-11
-4.26558e-11
1.18171e-12
3.16755e-13
-2.52977e-13
-1.47443e-11
2.70937e-11
-2.61537e-11
0
-2.83221e-11
-5.5985e-11
3.1121e-11
2.47082e-13
-9.18068e-13
3.9865e-13
2.96055e-11
1.95006e-11
1.53537e-12
1.82451e-11
-2.60911e-11
-1.936e-11
-1.30053e-11
4.31137e-11
-3.87982e-11
3.58125e-13
-3.04171e-11
-1.70641e-11
-1.42502e-13
6.08027e-12
5.33713e-12
-9.82198e-12
5.5814e-13
-7.40489e-13
2.20603e-12
3.57645e-11
6.93816e-13
-5.43719e-11
3.56847e-11
-1.18652e-11
1.48309e-13
-3.12698e-11
4.34297e-11
1.72969e-11
9.20432e-13
4.5909e-13
-5.27111e-13
-1.77037e-11
-2.80736e-11
-4.30292e-12
-2.97167e-13
-4.55282e-11
5.288e-11
-7.84119e-11
5.49136e-13
-4.81934e-12
-1.09114e-12
6.68467e-11
2.66132e-11
-4.45935e-12
-3.69202e-11
-6.15249e-11
2.73368e-11
-1.33419e-13
-3.61022e-11
3.62723e-11
1.20305e-13
-4.23541e-13
-5.25712e-13
4.46746e-12
2.97743e-13
2.16303e-13
2.35864e-13
1.63002e-11
-2.09706e-13
-5.05785e-14
7.79943e-14
-1.62961e-11
-5.96924e-13
-7.44531e-13
7.4233e-13
7.52343e-13
-1.90983e-13
-1.62676e-13
-3.34406e-14
1.83989e-11
1.4778e-11
-2.6839e-12
-1.46404e-11
-1.57374e-11
1.64677e-11
-1.31592e-14
-3.17146e-11
-2.34459e-11
1.54229e-11
2.3071e-12
-2.5068e-14
3.98521e-11
-5.25501e-12
-2.37408e-11
1.4814e-13
1.2887e-11
8.97503e-13
-1.84616e-12
8.82026e-13
-5.88236e-13
2.93845e-13
3.70334e-11
-3.76737e-11
5.03965e-12
-1.47983e-13
1.20223e-11
-1.02897e-11
-1.22526e-13
1.15139e-12
-8.87228e-13
2.94639e-13
2.81339e-11
-1.31972e-11
-5.9202e-13
1.21319e-11
-4.61132e-12
-1.49522e-11
-7.21379e-13
-6.75124e-12
2.04924e-11
-4.80117e-12
1.0351e-11
-1.4388e-12
-7.39871e-13
1.44999e-11
-5.38632e-12
-9.51202e-12
-4.88124e-14
1.50397e-11
-2.83967e-11
1.65751e-11
-1.15351e-11
-1.7894e-11
-7.84301e-12
2.96003e-13
-2.38265e-11
3.99298e-12
-3.13908e-11
-4.44896e-13
1.65189e-11
1.03694e-11
-1.16546e-11
-7.00824e-12
2.19081e-11
1.36309e-11
-4.06239e-12
-1.83329e-11
1.4896e-13
-9.13141e-13
6.5453e-13
2.57971e-13
-3.06575e-11
-9.2334e-12
-1.45225e-11
-1.48373e-13
-5.18339e-12
-2.89642e-11
1.42338e-11
-5.83477e-13
4.66461e-13
1.68626e-11
-4.07861e-13
-1.63179e-11
0
4.45377e-13
4.01142e-13
-3.49119e-13
1.61076e-11
6.72072e-14
-1.66422e-11
-2.83018e-13
3.46064e-13
6.53503e-14
0
4.44611e-13
1.72975e-13
5.7683e-13
4.07881e-13
8.76147e-12
-1.53644e-13
-2.23769e-11
2.87803e-13
1.30047e-11
-2.96402e-13
3.22899e-11
1.46183e-11
-1.79955e-11
-6.31408e-13
-2.5991e-13
-1.2586e-12
1.80509e-13
1.14172e-12
-4.07537e-14
1.48118e-13
1.48001e-11
-1.07419e-12
-6.52319e-13
1.55298e-11
2.68648e-13
-2.2175e-13
1.83202e-11
1.88218e-11
-1.6485e-11
-1.64294e-11
2.26318e-11
6.81985e-13
-2.26031e-11
-3.68497e-12
-2.64452e-13
3.29418e-12
1.64114e-11
-3.07871e-14
-1.63795e-11
-1.4792e-13
0
2.2636e-11
5.99988e-14
-2.28706e-11
8.50351e-14
-3.22036e-13
1.77077e-11
-2.05236e-13
-2.06807e-11
-2.07046e-12
-1.78965e-11
-3.99048e-13
1.79541e-11
3.88775e-13
2.08464e-13
-6.04316e-13
-1.16568e-12
-1.25906e-13
8.36491e-13
0
-1.93785e-11
-1.97852e-11
1.36648e-11
-1.44809e-13
-1.42409e-11
6.41902e-13
-1.54519e-11
3.67518e-14
1.51811e-11
-2.95839e-13
-5.92027e-13
-5.15473e-13
1.35241e-11
-4.22363e-14
-2.89177e-11
-8.13889e-14
1.56449e-11
6.12082e-16
-1.32752e-11
-1.33205e-11
0
-3.68328e-14
1.73273e-13
-9.49666e-14
-1.15673e-13
1.6545e-11
-1.85593e-13
-1.64454e-11
1.30846e-13
-1.4812e-13
-4.1495e-12
1.49379e-11
1.9155e-11
-3.14531e-14
-2.16714e-13
1.69955e-14
3.68823e-13
-9.63062e-14
4.62847e-14
1.482e-13
2.96112e-13
-4.55811e-14
-1.73957e-11
7.42855e-12
1.7261e-11
-7.07169e-12
-2.60838e-13
1.532e-11
-2.58815e-14
-1.53974e-11
-8.88041e-13
-2.30469e-11
-2.18162e-11
6.00512e-13
-5.45583e-13
8.86844e-14
8.50774e-13
6.18234e-13
1.29593e-11
1.28763e-11
-5.91781e-13
-3.80257e-13
-1.90893e-14
7.07258e-15
-1.0709e-13
-1.62056e-13
-3.16789e-14
5.61416e-14
1.46998e-11
1.44983e-11
9.76169e-12
5.37069e-13
-9.69304e-12
-1.08248e-12
1.6217e-13
4.61773e-13
-4.13004e-13
1.56998e-13
-7.43766e-14
-1.47892e-13
2.95779e-13
8.33771e-14
-1.64585e-13
1.16444e-13
-1.32128e-11
-3.05001e-13
1.33867e-11
-1.65824e-13
-5.05773e-12
-4.87976e-12
3.40143e-12
-1.46957e-11
-2.8335e-12
1.56809e-11
-1.42376e-11
-2.09063e-13
1.35632e-11
3.53569e-14
3.21221e-13
-1.47868e-13
-1.43465e-11
-1.48153e-11
-4.79644e-13
1.01257e-12
6.06522e-13
1.57839e-11
1.41532e-11
-3.20328e-11
-1.40038e-11
1.56757e-11
0
-6.11426e-13
1.64885e-14
7.48899e-13
4.48103e-14
-2.2761e-13
2.61846e-13
-3.12747e-14
-1.34476e-13
0
0
-5.52456e-14
-4.6698e-13
-1.51111e-11
4.10141e-13
1.56113e-11
-6.48386e-14
-3.4141e-13
1.13803e-13
0
8.58665e-12
-1.53784e-11
-1.02748e-11
1.51163e-11
1.8868e-11
1.35613e-11
-1.91093e-11
-1.43256e-11
-6.4293e-14
1.4804e-13
5.91907e-13
7.84959e-12
1.53261e-13
-7.40965e-12
-1.45607e-11
3.18997e-13
3.47065e-11
-6.83177e-13
-2.00486e-11
0
0
2.71149e-13
1.67085e-14
3.10854e-14
-2.3153e-13
-2.79468e-13
5.10439e-13
6.38774e-14
-5.1404e-13
0
-1.53836e-11
-1.61021e-11
-1.02101e-12
-4.26505e-13
5.12943e-13
4.96406e-13
-1.78918e-11
-2.57464e-13
1.79278e-11
0
1.47897e-13
1.96708e-11
5.62418e-13
-1.89394e-11
-1.64523e-13
-1.50263e-12
-1.67589e-13
4.41806e-13
-2.08104e-14
-1.47881e-13
-4.43663e-13
5.29256e-14
2.32293e-13
5.08608e-13
1.66806e-11
-5.23379e-13
-1.67171e-11
-2.02981e-11
-1.81383e-11
1.62653e-12
1.18312e-11
-2.10933e-12
-2.33949e-13
1.42255e-11
4.08264e-13
9.93738e-14
-5.87538e-13
1.13591e-13
-5.12173e-14
0
-1.61208e-11
-3.47833e-11
-9.93782e-14
1.84192e-11
4.06306e-13
-8.83538e-14
-2.73756e-13
-1.9299e-11
-1.2687e-14
1.92233e-11
-1.47913e-13
-1.97783e-11
-1.73625e-11
1.95224e-11
1.70323e-11
2.1828e-13
2.42957e-13
-6.37665e-13
2.57364e-13
5.91577e-13
-1.52382e-11
-1.51624e-11
1.1924e-13
-1.39011e-13
-1.14146e-13
-3.18064e-14
-1.7835e-11
3.10802e-14
1.78599e-11
0
1.47969e-13
-1.33588e-13
2.87526e-13
5.16652e-14
-6.69721e-13
-1.98209e-13
5.67355e-13
8.18525e-14
-2.8405e-13
-2.95913e-13
-1.58285e-11
-7.41289e-13
1.53769e-11
1.44463e-13
2.64437e-18
-2.40494e-13
3.55826e-13
1.54856e-13
-9.50576e-14
0
-2.95833e-13
4.39228e-14
-1.83114e-12
-2.6882e-13
2.24866e-12
-1.19647e-13
1.57554e-13
3.46454e-14
-3.26041e-14
1.47904e-13
1.41982e-11
6.96664e-14
-1.41891e-11
1.90394e-11
4.1607e-13
-2.01382e-12
-1.7359e-12
-1.68627e-11
1.91425e-11
1.81899e-11
0
-1.47616e-11
6.57869e-14
1.47628e-11
5.30003e-13
8.92895e-14
-1.77102e-11
1.18177e-11
1.70248e-11
-1.19773e-11
0
1.10518e-13