/*--------------------------------*- C++ -*----------------------------------*\
  =========                 |
  \\      /  F ield         | OpenFOAM: The Open Source CFD Toolbox
   \\    /   O peration     | Website:  https://openfoam.org
    \\  /    A nd           | Version:  10
     \\/     M anipulation  |
\*---------------------------------------------------------------------------*/
FoamFile
{
    format      ascii;
    class       volScalarField;
    location    "3";
    object      gradTx;
}
// * * * * * * * * * * * * * * * * * * * * * * * * * * * * * * * * * * * * * //

dimensions      [0 -1 0 1 0 0 0];

internalField   nonuniform List<scalar> 
3000
(
-494.071
-5.89311
-0.035345
-0.000141703
-4.27115e-07
-1.02363e-09
1.68754e-10
-5.9952e-11
0
1.64313e-10
-494.071
-5.89311
-0.035345
-0.000141703
-4.2712e-07
-1.06049e-09
2.9754e-11
-1.86517e-11
-5.32907e-12
2.79776e-11
-494.071
-5.89311
-0.035345
-0.000141703
-4.27141e-07
-1.06981e-09
0
2.06501e-10
5.06262e-11
-1.15907e-10
-494.071
-5.89311
-0.035345
-0.000141703
-4.26933e-07
-1.13864e-09
0
0
-1.74083e-10
1.11022e-11
-494.071
-5.89311
-0.035345
-0.000141703
-4.27127e-07
-1.03384e-09
2.0739e-10
1.75415e-10
-1.9762e-10
-1.67866e-10
-494.071
-5.89311
-0.035345
-0.000141703
-4.27089e-07
-1.06537e-09
-3.24185e-11
2.06057e-10
8.34888e-11
-1.96287e-10
-494.071
-5.89311
-0.035345
-0.000141703
-4.26913e-07
-9.02833e-10
2.22045e-12
0
-1.9762e-10
1.42109e-11
-494.071
-5.89311
-0.035345
-0.000141703
-4.27133e-07
-1.10223e-09
1.6831e-10
2.39808e-11
-1.92291e-10
-7.99361e-12
-494.071
-5.89311
-0.035345
-0.000141703
-4.26961e-07
-1.1382e-09
-1.66978e-10
1.64313e-10
-3.90799e-11
-1.66089e-10
-494.071
-5.89311
-0.035345
-0.000141703
-4.27013e-07
-9.11271e-10
-6.21725e-12
-1.70086e-10
-1.01696e-10
1.71418e-10
-494.071
-5.89311
-0.035345
-0.000141703
-4.2717e-07
-1.06981e-09
1.98952e-10
5.77316e-12
-1.74971e-10
3.9968e-12
-494.071
-5.89311
-0.035345
-0.000141703
-4.27168e-07
-1.04894e-09
7.41629e-11
-2.39808e-11
1.64313e-11
-1.02141e-11
-494.071
-5.89311
-0.035345
-0.000141703
-4.27105e-07
-1.0596e-09
8.88178e-12
1.15907e-10
7.99361e-12
-7.10543e-11
-494.071
-5.89311
-0.035345
-0.000141703
-4.2709e-07
-1.10623e-09
-2.44249e-11
0
-4.21885e-11
-5.55112e-11
-494.071
-5.89311
-0.035345
-0.000141703
-4.27188e-07
-1.00187e-09
1.10134e-10
0
-8.92619e-11
-1.19904e-11
-494.071
-5.89311
-0.035345
-0.000141703
-4.27147e-07
-1.0596e-09
8.88178e-12
1.15907e-10
7.99361e-12
-2.93099e-11
-494.071
-5.89311
-0.035345
-0.000141703
-4.27202e-07
-1.03606e-09
1.0969e-10
4.44089e-13
-8.92619e-11
-6.08402e-11
-494.071
-5.89311
-0.035345
-0.000141703
-4.27107e-07
-1.12488e-09
1.55431e-11
0
-7.63833e-11
7.63833e-11
-494.071
-5.89311
-0.035345
-0.000141703
-4.27086e-07
-1.06715e-09
-2.08722e-11
-7.32747e-11
-9.50351e-11
5.37348e-11
-494.071
-5.89311
-0.035345
-0.000141703
-4.27029e-07
-1.07336e-09
1.16795e-10
0
-1.78968e-10
2.88658e-11
-494.071
-5.89311
-0.035345
-0.000141703
-4.27144e-07
-1.06981e-09
0
2.06501e-10
5.06262e-11
-1.15907e-10
-494.071
-5.89311
-0.035345
-0.000141703
-4.27147e-07
-9.82325e-10
2.44249e-11
3.86358e-11
-7.54952e-12
1.33227e-12
-494.071
-5.89311
-0.035345
-0.000141703
-4.27042e-07
-1.12133e-09
-4.88498e-12
-2.08722e-11
-1.11466e-10
1.11466e-10
-494.071
-5.89311
-0.035345
-0.000141703
-4.27188e-07
-1.04894e-09
9.50351e-11
-4.4853e-11
-5.01821e-11
1.15463e-11
-494.071
-5.89311
-0.035345
-0.000141703
-4.27156e-07
-1.0596e-09
2.13163e-11
0
-2.13163e-11
1.02585e-10
-494.071
-5.89311
-0.035345
-0.000141703
-4.2714e-07
-1.15108e-09
1.11022e-10
-2.08722e-11
-2.57572e-11
1.1724e-10
-494.071
-5.89311
-0.035345
-0.000141703
-4.27156e-07
-1.05382e-09
4.4853e-11
4.44089e-13
-2.44249e-11
2.44249e-11
-494.071
-5.89311
-0.035345
-0.000141703
-4.271e-07
-1.13953e-09
-2.35367e-11
0
-9.32587e-11
7.19425e-11
-494.071
-5.89311
-0.035345
-0.000141703
-4.27205e-07
-1.03828e-09
2.08722e-11
-2.08722e-11
6.43929e-11
4.52971e-11
-494.071
-5.89311
-0.035345
-0.000141703
-4.27119e-07
-1.06448e-09
9.32587e-12
3.9968e-11
2.9754e-11
-2.9754e-11
-494.071
-5.89311
-0.035345
-0.000141703
-4.27106e-07
-1.0707e-09
1.74083e-10
0
-1.74083e-10
1.11022e-11
-494.071
-5.89311
-0.035345
-0.000141703
-4.27135e-07
-1.01341e-09
1.90958e-11
0
-4.13003e-11
8.43769e-12
-494.071
-5.89311
-0.035345
-0.000141703
-4.27188e-07
-1.05382e-09
3.41949e-11
6.4837e-11
1.06581e-11
1.33227e-12
-494.071
-5.89311
-0.035345
-0.000141703
-4.27159e-07
-1.03562e-09
3.24185e-11
0
-5.24025e-11
-1.15463e-11
-494.071
-5.89311
-0.035345
-0.000141703
-4.27154e-07
-1.12799e-09
-7.50511e-11
6.66134e-11
1.00364e-10
-1.00364e-10
-494.071
-5.89311
-0.035345
-0.000141703
-4.27085e-07
-1.04761e-09
-2.13163e-11
-2.53131e-11
-9.50351e-11
-3.24185e-11
-494.071
-5.89311
-0.035345
-0.000141703
-4.27088e-07
-1.12754e-09
-9.23706e-11
6.66134e-11
1.00364e-10
-1.00364e-10
-494.071
-5.89311
-0.035345
-0.000141703
-4.27248e-07
-9.88098e-10
8.26006e-11
0
1.33227e-12
1.55431e-11
-494.071
-5.89311
-0.035345
-0.000141703
-4.27161e-07
-1.10534e-09
2.44249e-11
-2.35367e-11
-8.92619e-11
4.57412e-11
-494.071
-5.89311
-0.035345
-0.000141703
-4.27113e-07
-8.90399e-10
-2.22045e-11
-1.73639e-10
2.75335e-11
-2.75335e-11
-494.071
-5.89311
-0.035345
-0.000141703
-4.2718e-07
-1.03162e-09
2.0739e-10
1.6831e-10
-1.9762e-10
-1.77192e-10
-494.071
-5.89311
-0.035345
-0.000141703
-4.2724e-07
-9.81881e-10
9.4591e-11
-1.95399e-11
-7.41629e-11
2.9754e-11
-494.071
-5.89311
-0.035345
-0.000141703
-4.27058e-07
-1.03828e-09
-9.50351e-11
-2.08722e-11
-2.13163e-11
2.13163e-11
-494.071
-5.89311
-0.035345
-0.000141703
-4.27189e-07
-9.82325e-10
3.41949e-11
-1.11466e-10
3.28626e-11
9.50351e-11
-494.071
-5.89311
-0.035345
-0.000141703
-4.27233e-07
-1.0596e-09
8.52651e-11
4.44089e-13
-8.57092e-11
8.52651e-11
-494.071
-5.89311
-0.035345
-0.000141703
-4.27205e-07
-1.03828e-09
1.02585e-10
-2.08722e-11
-1.77636e-11
4.57412e-11
-494.071
-5.89311
-0.035345
-0.000141703
-4.27172e-07
-1.0596e-09
8.52651e-11
4.44089e-13
0
8.52651e-11
-494.071
-5.89311
-0.035345
-0.000141703
-4.27108e-07
-9.74332e-10
-2.66454e-11
0
-1.82077e-11
-6.79456e-11
-494.071
-5.89311
-0.035345
-0.000141703
-4.27189e-07
-1.03828e-09
1.06137e-10
-2.08722e-11
-2.08722e-11
1.16351e-10
-494.071
-5.89311
-0.035345
-0.000141703
-4.2718e-07
-1.06892e-09
2.88658e-11
-4.44089e-13
1.06581e-11
9.05942e-11
-494.071
-5.89311
-0.035345
-0.000141703
-4.27141e-07
-8.63754e-10
-2.35367e-11
0
7.4607e-11
-1.96287e-10
-494.071
-5.89311
-0.035345
-0.000141703
-4.27154e-07
-1.0596e-09
8.88178e-12
1.15907e-10
-4.9738e-11
-1.33227e-11
-494.071
-5.89311
-0.035345
-0.000141703
-4.27144e-07
-1.0596e-09
8.70415e-11
0
-8.70415e-11
8.70415e-11
-494.071
-5.89311
-0.035345
-0.000141703
-4.27086e-07
-9.71667e-10
-2.17604e-11
-1.02141e-10
7.10543e-12
8.70415e-11
-494.071
-5.89311
-0.035345
-0.000141703
-4.27206e-07
-9.82325e-10
1.11466e-10
0
-1.11466e-10
3.41949e-11
-494.071
-5.89311
-0.035345
-0.000141703
-4.2725e-07
-1.03828e-09
8.65974e-11
-2.13163e-11
-8.88178e-13
1.06581e-11
-494.071
-5.89311
-0.035345
-0.000141703
-4.27071e-07
-1.0747e-09
-5.68434e-11
8.52651e-11
3.9968e-11
-3.9968e-11
-494.071
-5.89311
-0.035345
-0.000141703
-4.27131e-07
-1.02762e-09
-6.75016e-11
0
2.62013e-11
-4.84057e-11
-494.071
-5.89311
-0.035345
-0.000141703
-4.27059e-07
-1.01386e-09
-4.04121e-11
5.72875e-11
-2.44249e-11
-3.5083e-11
-494.071
-5.89311
-0.035345
-0.000141703
-4.27087e-07
-8.58869e-10
2.84217e-11
4.44089e-13
1.33227e-12
-1.76748e-10
-494.071
-5.89311
-0.035345
-0.000141703
-4.27122e-07
-8.94396e-10
3.90799e-11
-1.64313e-10
-3.90799e-11
-1.77636e-12
-494.071
-5.89311
-0.035345
-0.000141703
-4.27247e-07
-9.88543e-10
9.54792e-11
0
-9.50351e-11
1.11022e-11
-494.071
-5.89311
-0.035345
-0.000141703
-4.27153e-07
-1.03828e-09
0
0
6.4837e-11
8.12683e-11
-494.071
-5.89311
-0.035345
-0.000141703
-4.27087e-07
-1.04805e-09
-6.88338e-11
6.61693e-11
7.72715e-11
-9.01501e-11
-494.071
-5.89311
-0.035345
-0.000141703
-4.27212e-07
-1.05915e-09
6.39488e-11
2.17604e-11
0
-4.44089e-13
-494.071
-5.89311
-0.035345
-0.000141703
-4.27202e-07
-9.73888e-10
4.61853e-11
-4.04121e-11
-9.76996e-12
2.17604e-11
-494.071
-5.89311
-0.035345
-0.000141703
-4.27089e-07
-1.0596e-09
-6.39488e-11
0
6.39488e-11
2.13163e-11
-494.071
-5.89311
-0.035345
-0.000141703
-4.27174e-07
-1.05516e-09
-2.62013e-11
6.43929e-11
6.70575e-11
-6.70575e-11
-494.071
-5.89311
-0.035345
-0.000141703
-4.27089e-07
-9.73444e-10
-7.99361e-12
-6.4837e-11
-1.9984e-11
9.50351e-11
-494.071
-5.89311
-0.035345
-0.000141703
-4.2718e-07
-1.06892e-09
2.84217e-11
3.95239e-11
1.11022e-11
-1.11022e-11
-494.071
-5.89311
-0.035345
-0.000141703
-4.27165e-07
-9.5346e-10
2.01172e-10
-1.6831e-10
0
-7.54952e-12
-494.071
-5.89311
-0.035345
-0.000141703
-4.27106e-07
-1.04761e-09
1.5099e-11
-1.5099e-11
0
1.5099e-11
-494.071
-5.89311
-0.035345
-0.000141703
-4.27108e-07
-1.11555e-09
-1.82077e-11
-2.35367e-11
-7.23865e-11
7.23865e-11
-494.071
-5.89311
-0.035345
-0.000141703
-4.27249e-07
-1.06226e-09
7.10543e-12
2.39808e-11
-7.99361e-12
7.63833e-11
-494.071
-5.89311
-0.035345
-0.000141703
-4.27061e-07
-1.13021e-09
-8.39329e-11
8.52651e-11
2.66454e-11
-8.74856e-11
-494.071
-5.89311
-0.035345
-0.000141703
-4.27062e-07
-1.12665e-09
-6.79456e-11
0
2.66454e-11
7.4607e-11
-494.071
-5.89311
-0.035345
-0.000141703
-4.2715e-07
-1.05427e-09
-4.88498e-11
5.68434e-11
2.66454e-11
-5.90639e-11
-494.071
-5.89311
-0.035345
-0.000141703
-4.27143e-07
-1.06093e-09
9.4591e-11
0
-7.01661e-11
0
-494.071
-5.89311
-0.035345
-0.000141703
-4.2715e-07
-9.89431e-10
-4.88498e-11
-6.43929e-11
-1.86517e-11
9.81437e-11
-494.071
-5.89311
-0.035345
-0.000141703
-4.27081e-07
-1.06493e-09
-8.43769e-12
2.06501e-10
-1.11022e-11
-1.85185e-10
-494.071
-5.89311
-0.035345
-0.000141703
-4.26917e-07
-8.9484e-10
-1.66089e-10
0
-3.95239e-11
-1.65645e-10
-494.071
-5.89311
-0.035345
-0.000141703
-4.27131e-07
-9.88098e-10
-2.08722e-11
-7.32747e-11
-9.50351e-11
5.37348e-11
-494.071
-5.89311
-0.035345
-0.000141703
-4.27144e-07
-1.03828e-09
2.08722e-11
-2.08722e-11
-2.13163e-11
4.57412e-11
-494.071
-5.89311
-0.035345
-0.000141703
-4.27191e-07
-1.06182e-09
9.4591e-11
-9.01501e-11
-2.79776e-11
0
-494.071
-5.89311
-0.035345
-0.000141703
-4.27205e-07
-9.82325e-10
8.61533e-11
-8.88178e-13
-8.52651e-11
-5.59552e-11
-494.071
-5.89311
-0.035345
-0.000141703
-4.27059e-07
-9.73444e-10
-1.90958e-11
-6.39488e-11
-9.76996e-12
4.61853e-11
-494.071
-5.89311
-0.035345
-0.000141703
-4.27189e-07
-1.07558e-09
4.08562e-11
2.08722e-11
4.44089e-13
-2.13163e-11
-494.071
-5.89311
-0.035345
-0.000141703
-4.2712e-07
-1.01652e-09
-2.66454e-11
2.4869e-11
9.76996e-11
-8.39329e-11
-494.071
-5.89311
-0.035345
-0.000141703
-4.27185e-07
-1.03872e-09
8.17124e-11
4.57412e-11
-1.02585e-10
-4.57412e-11
-494.071
-5.89311
-0.035345
-0.000141703
-4.27058e-07
-8.5798e-10
-5.15143e-11
-1.67866e-10
-9.32587e-12
-3.73035e-11
-494.071
-5.89311
-0.035345
-0.000141703
-4.27012e-07
-1.07958e-09
4.44089e-13
-8.88178e-13
-1.09246e-10
6.08402e-11
-494.071
-5.89311
-0.035345
-0.000141703
-4.27077e-07
-1.06404e-09
-5.06262e-11
-1.02141e-11
-4.88498e-12
2.09166e-10
-494.071
-5.89311
-0.035345
-0.000141703
-4.27179e-07
-1.0596e-09
-8.88178e-13
3.01981e-11
-4.44089e-13
-2.88658e-11
-494.071
-5.89311
-0.035345
-0.000141703
-4.27129e-07
-9.58789e-10
1.5099e-11
-1.6831e-10
1.82077e-11
5.15143e-11
-494.071
-5.89311
-0.035345
-0.000141703
-4.27127e-07
-1.06493e-09
0
3.90799e-11
0
-3.90799e-11
-494.071
-5.89311
-0.035345
-0.000141703
-4.27119e-07
-1.0969e-09
2.84217e-11
1.02141e-11
1.77636e-12
1.86517e-11
-494.071
-5.89311
-0.035345
-0.000141703
-4.27149e-07
-1.07203e-09
9.32587e-12
-9.32587e-12
-3.95239e-11
-3.01981e-11
-494.071
-5.89311
-0.035345
-0.000141703
-4.27128e-07
-1.09202e-09
-7.99361e-12
1.11022e-11
-1.11022e-11
-1.86517e-11
-494.071
-5.89311
-0.035345
-0.000141703
-4.27168e-07
-1.09734e-09
1.75415e-10
3.77476e-11
-1.75859e-10
1.6831e-10
-494.071
-5.89311
-0.035345
-0.000141703
-4.26947e-07
-1.06315e-09
-1.69642e-10
1.7053e-10
1.70086e-10
-1.69642e-10
1.77636e-12
2.22045e-12
-2.66454e-12
3.9968e-12
-3.9968e-12
4.44089e-13
0
-2.22045e-12
5.77316e-12
-3.9968e-12
-9.76996e-12
-1.77636e-12
1.42109e-11
1.77636e-12
1.68754e-10
-1.28786e-11
-1.70086e-10
1.42109e-11
1.33227e-10
-8.88178e-13
-5.24025e-11
-5.63993e-11
1.33227e-12
0
1.65201e-10
-1.42109e-11
-1.69198e-10
1.82077e-11
-2.22045e-12
-8.88178e-13
5.32907e-12
1.64313e-10
6.17284e-11
0
-9.4591e-11
2.22045e-12
3.24185e-11
-1.66089e-10
-7.10543e-12
0
1.84741e-10
0
-1.61648e-10
1.70974e-10
5.77316e-12
-1.75415e-10
-1.33227e-12
5.77316e-12
1.65201e-10
-4.44089e-13
-5.19584e-11
1.9762e-10
4.44089e-13
-1.73195e-10
1.64757e-10
-1.37668e-11
3.9968e-12
1.82077e-11
-1.75415e-10
-8.88178e-13
2.04281e-11
-1.70974e-10
2.66454e-12
0
5.77316e-12
-4.44089e-12
-1.33227e-12
6.83897e-11
1.65645e-10
-6.35048e-11
-5.32907e-12
-1.11022e-11
1.96287e-10
1.82077e-11
1.77636e-12
-2.93099e-11
-1.68754e-10
0
0
3.9968e-12
2.06057e-10
8.43769e-12
4.44089e-13
1.7053e-10
-1.77636e-12
-1.02141e-11
-1.65645e-10
-1.65645e-10
1.66089e-10
4.44089e-12
1.0969e-10
0
-8.88178e-13
0
4.44089e-13
-2.22045e-12
1.77636e-12
-9.72555e-11
-2.66454e-12
9.99201e-11
-9.76996e-12
-1.77636e-12
1.81632e-10
1.77636e-12
1.33227e-12
-2.75335e-11
-1.70086e-10
2.88658e-11
1.33227e-10
-8.88178e-13
-1.28786e-11
6.17284e-11
2.13163e-11
1.33227e-11
-8.88178e-12
1.19904e-11
-2.35367e-11
2.04281e-11
1.5099e-11
-1.08802e-10
-1.02585e-10
4.17444e-11
7.54952e-12
0
1.09246e-10
2.62013e-11
-2.9754e-11
-1.05249e-10
2.9754e-11
1.0969e-10
-4.57412e-11
4.44089e-11
0
1.19904e-11
9.50351e-11
3.90799e-11
-2.22045e-12
-2.66454e-11
-3.77476e-11
1.55431e-11
5.59552e-11
4.17444e-11
-3.5083e-11
-6.83897e-11
7.50511e-11
2.39808e-11
-3.06422e-11
3.68594e-11
2.9754e-11
-1.19904e-11
-4.57412e-11
8.88178e-13
4.08562e-11
3.01981e-11
1.86517e-11
-5.41789e-11
-3.01981e-11
-6.35048e-11
3.10862e-11
8.65974e-11
-2.08722e-11
4.13003e-11
6.30607e-11
6.66134e-12
5.41789e-11
-2.9754e-11
0
3.5083e-11
-6.21725e-11
-1.15463e-11
-1.33227e-11
-3.73035e-11
9.50351e-11
3.73035e-11
4.44089e-13
-8.92619e-11
-6.21725e-12
0
0
9.23706e-11
5.68434e-11
8.88178e-13
4.08562e-11
3.01981e-11
1.86517e-11
-5.41789e-11
8.88178e-13
-6.35048e-11
0
1.1724e-10
9.32587e-12
1.803e-10
-1.77636e-11
-1.70086e-10
1.37668e-11
-1.82077e-11
1.74527e-10
1.86517e-11
-5.77316e-12
1.69642e-10
-5.24025e-11
-5.63993e-11
1.33227e-12
1.74527e-10
-6.21725e-12
-7.99361e-12
2.22045e-12
-1.62537e-10
1.69198e-10
-4.44089e-12
-4.57412e-11
-3.06422e-11
-4.88498e-11
3.01981e-11
1.09246e-10
-5.41789e-11
-3.01981e-11
-6.30607e-11
3.06422e-11
6.66134e-11
6.35048e-11
-1.00364e-10
3.4639e-11
3.4639e-11
-5.32907e-11
-2.79776e-11
6.4837e-11
8.12683e-11
-6.4837e-11
1.24345e-11
6.08402e-11
6.17284e-11
-2.70894e-11
3.73035e-11
7.99361e-12
-4.44089e-12
0
-2.75335e-11
-6.75016e-11
-6.88338e-11
9.85878e-11
-8.17124e-11
0
0
-7.72715e-11
7.72715e-11
0
0
0
-7.72715e-11
-7.77156e-11
-5.01821e-11
9.85878e-11
0
-6.17284e-11
-5.90639e-11
7.28306e-11
0
-5.06262e-11
5.90639e-11
1.15463e-11
0
0
-2.39808e-11
1.19904e-11
7.77156e-11
0
-6.57252e-11
-2.39808e-11
6.92779e-11
8.61533e-11
-7.50511e-11
1.28786e-11
7.4607e-11
-8.03801e-11
-1.33227e-11
2.44249e-11
3.68594e-11
5.15143e-11
-8.88178e-12
2.04281e-11
0
-1.06581e-10
-2.35367e-11
0
3.59712e-11
4.52971e-11
4.88498e-11
0
-3.55271e-12
-3.41949e-11
0
0
2.9754e-11
4.44089e-12
-3.41949e-11
0
0
2.9754e-11
4.44089e-12
5.32907e-12
-7.54952e-12
6.17284e-11
0
-6.12843e-11
1.74083e-10
-8.88178e-13
-1.66089e-10
-7.10543e-12
0
-4.52971e-11
-3.95239e-11
-4.44089e-13
1.19904e-11
1.06581e-11
3.86358e-11
1.09246e-10
-9.81437e-11
-3.10862e-12
8.70415e-11
-1.19904e-11
-1.42109e-11
4.61853e-11
3.73035e-11
7.54952e-12
-1.19904e-11
4.44089e-13
2.04281e-11
1.5099e-11
-3.24185e-11
1.06581e-11
-1.24345e-11
2.84217e-11
1.24345e-11
-6.30607e-11
2.39808e-11
0
-1.77636e-12
7.59393e-11
-5.86198e-11
-1.03473e-10
0
9.76996e-11
8.4821e-11
-9.54792e-11
-9.50351e-11
0
7.99361e-12
1.08358e-10
3.10862e-12
4.44089e-13
-1.11022e-11
8.57092e-11
7.54952e-11
1.33227e-12
6.21725e-12
0
-1.77636e-11
2.35367e-11
1.82077e-11
-5.32907e-12
-4.44089e-13
-2.84217e-11
8.43769e-11
1.73195e-11
-7.37188e-11
0
8.52651e-11
-2.22045e-12
-9.50351e-11
-2.79776e-11
9.32587e-12
4.44089e-13
-2.66454e-11
-2.44249e-11
-7.23865e-11
-2.35367e-11
-8.88178e-13
2.44249e-11
9.90319e-11
3.64153e-11
-1.11022e-11
5.77316e-11
4.44089e-13
-2.08722e-11
4.26326e-11
-8.39329e-11
2.08722e-11
4.44089e-11
-4.66294e-11
4.88498e-12
0
-1.42109e-11
3.28626e-11
1.46549e-11
1.66533e-10
-4.44089e-13
-1.66978e-10
1.67866e-10
-3.15303e-11
-9.76996e-12
9.32587e-12
3.86358e-11
0
1.64757e-10
1.62981e-10
-1.65201e-10
-1.62537e-10
1.65201e-10
-4.44089e-13
9.4591e-11
3.01981e-11
-8.21565e-11
-8.88178e-13
8.43769e-11
-3.86358e-11
4.44089e-13
-5.72875e-11
-5.06262e-11
4.61853e-11
1.19016e-10
4.61853e-11
-2.08722e-11
-4.61853e-11
-7.72715e-11
2.08722e-11
-9.32587e-12
5.55112e-11
1.02141e-11
-7.72715e-11
-5.90639e-11
2.44249e-11
1.04805e-10
-8.52651e-11
-1.02141e-10
-2.62013e-11
0
5.59552e-11
7.10543e-12
-5.28466e-11
9.90319e-11
-4.44089e-13
0
4.44089e-13
-1.33227e-11
1.33227e-11
-8.57092e-11
0
8.57092e-11
-1.33227e-11
-5.28466e-11
6.61693e-11
8.30447e-11
0
-3.86358e-11
-4.88498e-12
-3.24185e-11
-7.32747e-11
6.61693e-11
1.24345e-11
2.08722e-11
0
0
-6.4837e-11
-8.4821e-11
8.52651e-11
6.43929e-11
0
-6.43929e-11
-6.08402e-11
2.17604e-11
-4.44089e-13
8.52651e-11
7.50511e-11
-8.83738e-11
-1.33227e-11
9.41469e-11
-1.77636e-12
-1.82077e-11
2.93099e-11
-2.84217e-11
0
-5.77316e-11
0
9.85878e-11
-5.86198e-11
1.77636e-11
0
0
1.95399e-11
-6.66134e-12
-6.12843e-11
0
0
1.74527e-10
4.44089e-12
-1.17684e-10
0
-6.12843e-11
1.33227e-12
-5.19584e-11
1.9762e-10
-1.77636e-11
-1.73195e-10
1.86962e-10
-1.37668e-11
0
1.82077e-11
-1.75415e-10
1.68754e-10
7.06102e-11
1.55431e-11
-3.77476e-11
-4.44089e-13
3.86358e-11
-7.4607e-11
0
7.41629e-11
-3.10862e-11
1.33227e-12
7.54952e-12
4.44089e-13
-4.44089e-13
-7.59393e-11
9.50351e-11
6.21725e-12
1.42109e-11
-9.32587e-12
-5.32907e-12
5.90639e-11
-3.9968e-12
-5.28466e-11
-9.81437e-11
-2.35367e-11
1.10578e-10
4.61853e-11
-2.35367e-11
4.13003e-11
-4.35207e-11
-3.55271e-12
9.85878e-11
-1.33227e-12
2.66454e-12
-4.30767e-11
-7.99361e-11
3.10862e-11
2.44249e-11
0
0
1.24345e-11
-6.66134e-12
1.08802e-10
3.41949e-11
-5.24025e-11
-6.83897e-11
-5.90639e-11
-3.41949e-11
7.10543e-11
5.63993e-11
3.24185e-11
2.04281e-11
4.9738e-11
7.10543e-12
1.64313e-11
-9.23706e-11
-5.32907e-12
2.44249e-11
0
4.04121e-11
-3.55271e-12
7.10543e-11
1.5099e-11
-3.86358e-11
-1.5099e-11
-5.90639e-11
9.4591e-11
9.4591e-11
-7.10543e-12
-2.66454e-12
0
8.52651e-11
-1.19904e-11
-2.66454e-11
-1.02141e-11
-5.86198e-11
6.12843e-11
4.61853e-11
0
-2.22045e-11
-3.55271e-12
8.43769e-12
1.78968e-10
-2.39808e-11
8.88178e-13
-5.77316e-12
-2.02505e-10
1.90958e-11
0
-1.90958e-11
2.35367e-11
3.77476e-11
8.88178e-12
1.33227e-12
1.7053e-10
1.65201e-10
-1.88738e-10
-1.65645e-10
1.86517e-11
-6.21725e-12
1.69642e-10
9.81437e-11
-3.06422e-11
-1.95399e-11
3.01981e-11
3.86358e-11
-7.4607e-11
-3.06422e-11
7.37188e-11
-4.44089e-13
-4.88498e-11
2.04281e-11
-5.72875e-11
-2.84217e-11
6.57252e-11
0
1.77636e-12
1.77636e-11
-7.10543e-12
1.59872e-11
-8.4821e-11
-9.05942e-11
7.41629e-11
5.63993e-11
1.5099e-11
1.77636e-11
-3.28626e-11
-8.43769e-11
-5.63993e-11
0
7.41629e-11
-5.24025e-11
6.52811e-11
9.76996e-12
-1.9984e-11
7.37188e-11
3.95239e-11
-3.06422e-11
-7.28306e-11
-4.08562e-11
-1.19904e-11
0
-1.15463e-11
5.77316e-12
-2.08722e-11
-6.39488e-11
2.35367e-11
1.06581e-11
6.21725e-12
1.06137e-10
4.84057e-11
-2.79776e-11
-1.02141e-11
6.21725e-12
5.55112e-11
-6.30607e-11
-9.76996e-12
2.13163e-11
0
2.44249e-11
5.37348e-11
-1.82077e-11
1.5099e-11
0
-1.5099e-11
-4.88498e-11
8.74856e-11
9.4591e-11
-3.10862e-12
-3.10862e-12
3.55271e-12
5.86198e-11
-4.88498e-11
-3.73035e-11
-2.13163e-11
2.66454e-11
3.24185e-11
-8.52651e-11
1.77636e-12
6.39488e-11
-7.81597e-11
-4.44089e-13
1.02141e-11
4.44089e-13
-3.24185e-11
-2.88658e-11
3.15303e-11
1.90958e-11
-4.44089e-13
1.78968e-10
-4.44089e-12
-1.79412e-10
1.65201e-10
-2.88658e-11
-1.6076e-10
2.03837e-10
-7.10543e-12
-1.65201e-10
0
-2.66454e-12
1.67866e-10
-7.99361e-12
9.76996e-12
-1.03029e-10
-2.66454e-12
1.10134e-10
-1.33227e-11
-8.88178e-13
-5.72875e-11
6.66134e-12
1.82077e-11
-2.13163e-11
0
7.90479e-11
0
4.08562e-11
1.95399e-11
-7.63833e-11
-7.10543e-12
5.24025e-11
4.44089e-13
5.59552e-11
9.76996e-12
0
0
-2.44249e-11
-9.90319e-11
8.88178e-13
-8.88178e-13
5.86198e-11
5.24025e-11
4.04121e-11
1.5099e-11
-8.52651e-11
-1.59872e-11
9.41469e-11
4.39648e-11
2.39808e-11
-1.82077e-11
-6.66134e-12
6.12843e-11
7.01661e-11
-2.44249e-11
-9.32587e-12
2.44249e-11
-6.35048e-11
-7.72715e-11
0
6.39488e-11
-3.19744e-11
-9.72555e-11
0
1.5099e-11
0
-1.5099e-11
-2.22045e-12
7.99361e-11
7.32747e-11
1.95399e-11
-2.17604e-11
-1.11022e-11
3.4639e-11
8.30447e-11
-5.68434e-11
-2.17604e-11
8.08242e-11
-5.90639e-11
1.86517e-11
0
-4.04121e-11
2.17604e-11
8.57092e-11
-2.44249e-11
-2.84217e-11
2.44249e-11
5.63993e-11
-5.63993e-11
-7.01661e-11
-5.77316e-12
-3.24185e-11
4.13003e-11
-1.02141e-11
1.86962e-10
4.44089e-13
-3.68594e-11
2.08278e-10
-1.38112e-10
0
-4.88498e-12
0
-2.44249e-11
2.06057e-10
8.43769e-12
-1.72307e-10
1.70974e-10
1.7053e-10
-1.93623e-10
-1.66089e-10
1.82077e-11
-5.77316e-12
4.44089e-12
1.15907e-10
-4.44089e-13
-8.30447e-11
2.39808e-11
8.4821e-11
-3.19744e-11
-3.06422e-11
-5.81757e-11
-1.90958e-11
9.68114e-11
7.10543e-12
8.88178e-13
9.76996e-11
0
-1.06581e-10
-2.70894e-11
9.41469e-11
-8.88178e-12
-5.01821e-11
1.37668e-11
-6.70575e-11
-1.02141e-11
1.15907e-10
9.9476e-11
-2.08722e-11
5.77316e-12
-8.43769e-11
-3.01981e-11
-4.44089e-13
9.76996e-12
9.81437e-11
-1.02141e-11
2.66454e-12
1.00808e-10
-2.39808e-11
-1.28786e-11
7.99361e-12
0
4.44089e-13
-7.72715e-11
2.13163e-11
-1.11022e-11
-6.21725e-11
1.15463e-11
6.88338e-11
1.11022e-11
-7.41629e-11
1.28786e-11
9.14824e-11
1.9984e-11
2.08722e-11
8.61533e-11
7.54952e-12
-8.70415e-11
2.66454e-12
1.05693e-10
-1.15019e-10
0
5.72875e-11
-8.52651e-11
-1.16795e-10
1.59872e-11
0
8.43769e-12
1.90958e-11
2.04281e-11
9.4591e-11
-6.21725e-12
-5.72875e-11
1.59872e-11
1.06137e-10
7.37188e-11
7.10543e-12
-7.41629e-11
-1.12799e-10
8.52651e-11
6.61693e-11
7.54952e-12
-6.70575e-11
-1.06581e-11
8.43769e-12
3.73035e-11
-2.30926e-11
2.22045e-12
1.90514e-10
-3.4639e-11
-2.06057e-10
8.88178e-13
2.9754e-11
4.88498e-12
-5.9952e-11
1.11022e-10
7.06102e-11
0
9.76996e-11
-2.22045e-12
2.22045e-12
-9.72555e-11
-2.66454e-12
9.99201e-11
1.70974e-10
-1.70974e-10
-1.80744e-10
1.66089e-10
1.83853e-10
-1.65201e-10
-1.7053e-10
-2.88658e-11
0
1.86517e-11
1.94511e-10
0
-1.95399e-10
0
2.06501e-10
1.90958e-10
-1.98952e-10
-6.21725e-12
3.10862e-12
-1.84741e-10
2.66454e-12
-5.01821e-11
-1.28786e-11
-3.24185e-11
1.46549e-11
1.77636e-11
-3.28626e-11
1.81188e-10
2.70894e-11
-1.98952e-10
1.94955e-10
3.41949e-11
6.21725e-12
-5.32907e-12
-1.70974e-10
1.66089e-10
-3.10862e-11
8.88178e-13
0
-1.55431e-10
0
1.78968e-10
3.10862e-12
0
1.71863e-10
-1.33227e-12
-1.6831e-10
-1.72307e-10
-3.06422e-11
-4.44089e-12
2.05613e-10
3.77476e-11
4.44089e-13
-3.15303e-11
0
2.35367e-11
-2.05613e-10
1.75415e-10
2.0739e-10
-1.76748e-10
0
1.86962e-10
0
0
1.61648e-10
-1.69642e-10
-1.32783e-10
-1.33227e-12
-3.10862e-11
5.90639e-11
-3.01981e-11
1.77636e-12
5.77316e-12
-1.74083e-10
9.63674e-11
-3.41949e-11
-6.17284e-11
5.32907e-12
-2.9754e-11
2.00284e-10
-1.33227e-12
-1.33227e-12
-1.77636e-12
1.69642e-10
-1.67422e-10
-1.68754e-10
1.33227e-12
1.6831e-10
1.68754e-10
8.88178e-13
-5.77316e-12
2.22045e-12
0
-2.22045e-12
1.77636e-12
0
4.44089e-13
0
-1.69642e-10
-1.67866e-10
-1.33227e-10
-6.21725e-12
0
6.21725e-12
-3.55271e-12
0
-4.44089e-13
0
1.69642e-10
1.66089e-10
7.54952e-12
1.33227e-12
-2.22045e-12
-8.88178e-13
0
0
-2.30926e-11
0
1.89182e-10
1.66089e-10
7.10543e-12
-6.21725e-12
-3.24185e-11
-2.66454e-11
2.00728e-10
3.55271e-12
4.44089e-13
-2.66454e-12
4.44089e-13
2.02949e-10
5.32907e-12
8.88178e-13
0
1.70086e-10
0
0
-1.80744e-10
0
1.81632e-10
1.33227e-12
-3.19744e-11
6.35048e-11
2.08722e-10
1.07914e-10
0
0
-1.95399e-11
0
2.04281e-11
1.33227e-12
-1.69198e-10
-1.77636e-11
0
1.37668e-11
1.74527e-10
0
-8.88178e-13
-5.32907e-12
4.44089e-13
1.79412e-10
-8.88178e-13
2.4869e-11
-3.9968e-12
1.58096e-10
-1.9984e-11
-1.62537e-10
2.4869e-11
-2.22045e-12
1.68754e-10
1.76748e-10
-2.03837e-10
-1.33227e-11
2.09166e-10
1.84297e-10
0
0
-4.44089e-13
0
1.33227e-12
1.33227e-12
-3.9968e-12
-4.44089e-13
6.21725e-12
4.44089e-13
0
0
-1.72307e-10
0
-1.77636e-12
-1.73639e-10
-1.33227e-10
-6.21725e-12
0
6.21725e-12
-3.55271e-12
0
-4.44089e-13
0
1.69642e-10
1.66089e-10
-1.46549e-11
4.52971e-11
0
3.06422e-11
-2.30926e-11
0
2.66454e-12
-6.52811e-11
2.21601e-10
2.67786e-10
-1.1724e-10
-3.81917e-11
6.70575e-11
-1.15463e-11
5.06262e-11
-8.88178e-13
-8.34888e-11
0
8.12683e-11
4.79616e-11
3.9968e-11
-3.19744e-11
0
3.19744e-11
-1.77636e-12
7.99361e-12
-3.64153e-11
4.44089e-13
3.86358e-11
-6.21725e-12
-3.90799e-11
1.19904e-11
-1.06581e-11
-1.15463e-11
5.06262e-11
-8.88178e-13
-7.28306e-11
0
5.9952e-11
3.68594e-11
-3.06422e-11
1.46549e-11
-4.44089e-13
-1.42109e-11
3.06422e-11
0
-6.66134e-12
3.06422e-11
1.78968e-10
1.72307e-10
2.9754e-11
-5.32907e-11
1.33227e-12
5.32907e-11
3.06422e-11
0
0
0
1.68754e-10
2.00284e-10
-2.35367e-11
-3.4639e-11
3.01981e-11
3.81917e-11
-7.41629e-11
8.88178e-13
3.55271e-11
0
2.05169e-10
1.67866e-10
-3.06422e-11
-7.50511e-11
0
4.44089e-11
3.06422e-11
0
0
0
1.33227e-12
3.15303e-11
-1.73639e-10
-1.86962e-10
-1.77636e-12
7.99361e-12
0
0
-2.84217e-11
0
2.08722e-10
1.803e-10
-2.03393e-10
4.44089e-12
3.41949e-11
1.70086e-10
0
-1.74527e-10
-1.9984e-11
4.44089e-13
1.89182e-10
1.69642e-10
8.88178e-13
-5.01821e-11
-5.01821e-11
1.00364e-10
0
-5.06262e-11
4.35207e-11
0
1.78524e-10
2.22933e-10
0
5.77316e-12
7.10543e-11
-7.14984e-11
-8.21565e-11
-4.44089e-13
8.30447e-11
4.44089e-13
-7.99361e-12
6.43929e-11
6.88338e-11
4.4853e-11
-7.54952e-11
3.01981e-11
5.28466e-11
-7.63833e-11
3.55271e-12
1.02141e-11
2.10942e-10
2.56239e-10
0
9.59233e-11
0
-9.59233e-11
0
0
9.59233e-11
0
-2.62013e-11
6.9722e-11
0
5.01821e-11
0
-5.01821e-11
0
0
-2.44249e-11
5.01821e-11
7.19425e-11
-2.22045e-12
4.44089e-13
1.64313e-11
8.21565e-11
-9.90319e-11
-5.68434e-11
8.12683e-11
7.4607e-11
0
-2.93099e-11
-1.15463e-11
-2.84217e-11
-9.85878e-11
5.01821e-11
5.86198e-11
-1.02141e-11
4.9738e-11
3.9968e-12
-6.12843e-11
-8.88178e-12
4.57412e-11
-2.39808e-11
1.42109e-11
8.12683e-11
-9.59233e-11
-5.68434e-11
8.12683e-11
6.83897e-11
-5.81757e-11
-2.22045e-11
4.57412e-11
0
1.94067e-10
-2.9754e-11
-1.64313e-10
0
-2.93099e-11
1.93623e-10
0
5.77316e-12
1.99396e-10
-2.57572e-11
-5.77316e-12
3.24185e-11
-2.66454e-11
0
8.30447e-11
1.69642e-10
-5.06262e-11
0
1.68754e-10
-2.13163e-11
-3.15303e-11
-4.44089e-13
3.19744e-11
-1.77636e-12
7.99361e-12
1.24345e-11
0
1.42109e-11
1.73195e-11
-7.10543e-12
3.06422e-11
0
-2.22045e-11
-3.10862e-11
0
5.32907e-11
0
1.71418e-10
1.93623e-10
-5.19584e-11
-1.77636e-12
4.30767e-11
9.32587e-11
-1.15463e-11
0
-3.9968e-12
0
1.94067e-10
1.7808e-10
-2.44249e-11
1.06137e-10
-8.39329e-11
-2.22045e-11
8.39329e-11
-8.39329e-11
1.82077e-11
0
7.10543e-12
1.09246e-10
-3.9968e-12
-8.39329e-11
-8.52651e-11
6.03961e-11
4.61853e-11
-2.9754e-11
-8.88178e-13
-4.21885e-11
5.24025e-11
9.81437e-11
-6.21725e-12
6.03961e-11
3.10862e-11
1.46549e-11
-1.06581e-10
3.06422e-11
5.28466e-11
0
5.50671e-11
8.88178e-13
-3.24185e-11
-8.65974e-11
1.08802e-10
4.70735e-11
-1.09246e-10
-2.4869e-11
1.06137e-10
6.4837e-11
3.10862e-12
0
5.10703e-11
-3.9968e-11
-8.52651e-11
6.03961e-11
-1.02141e-11
-3.01981e-11
5.59552e-11
-4.21885e-11
5.24025e-11
9.81437e-11
-1.67866e-10
1.96732e-10
-1.77636e-12
-1.64313e-10
0
-1.77636e-12
1.6831e-10
0
2.22045e-12
1.7053e-10
-1.64313e-10
4.44089e-13
-8.88178e-13
-1.33227e-12
0
0
1.77636e-12
0
1.64313e-10
1.66089e-10
5.06262e-11
-5.01821e-11
-5.01821e-11
1.00364e-10
-8.88178e-13
-4.9738e-11
-3.37508e-11
4.44089e-11
2.55795e-10
1.78524e-10
0
9.90319e-11
8.43769e-11
-9.85878e-11
-1.90958e-11
-4.44089e-13
3.37508e-11
0
-2.93099e-11
6.9722e-11
9.90319e-11
4.52971e-11
-3.06422e-11
6.12843e-11
-6.66134e-12
-3.06422e-11
-1.37668e-11
-6.52811e-11
2.10942e-10
2.56239e-10
-6.43929e-11
-1.37668e-11
0
-5.06262e-11
6.4837e-11
-4.44089e-13
-1.37668e-11
0
1.86517e-11
7.01661e-11
-8.88178e-12
-2.79776e-11
-5.72875e-11
2.79776e-11
0
0
3.33067e-11
8.88178e-13
2.9754e-11
6.43929e-11
8.12683e-11
6.52811e-11
-5.72875e-11
-6.52811e-11
0
0
6.52811e-11
0
6.03961e-11
1.25233e-10
1.68754e-11
-8.43769e-12
-5.63993e-11
1.28786e-11
5.19584e-11
-5.63993e-11
-5.06262e-11
0
3.86358e-11
3.95239e-11
-1.15907e-10
3.9968e-11
8.52651e-11
-1.16795e-10
3.01981e-11
8.61533e-11
-3.10862e-12
-4.44089e-13
-3.19744e-11
-4.88498e-12
1.78524e-10
1.69642e-10
-1.73195e-10
3.55271e-12
0
-1.73639e-10
1.70086e-10
0
4.44089e-12
1.75415e-10
-3.19744e-11
-1.06137e-10
3.41949e-11
1.0747e-10
0
-1.74527e-10
0
0
1.75415e-10
1.76303e-10
-8.65974e-11
-1.90958e-11
1.1724e-10
-3.06422e-11
-3.10862e-11
5.01821e-11
2.39808e-11
0
-9.32587e-12
-1.59872e-11
0
5.01821e-11
6.21725e-12
-6.21725e-12
-5.01821e-11
6.21725e-12
5.01821e-11
-4.44089e-13
1.71418e-10
1.70974e-10
-3.24185e-11
1.59872e-11
1.02141e-11
8.43769e-12
7.37188e-11
-3.24185e-11
5.77316e-12
-6.52811e-11
1.86962e-10
2.67786e-10
4.44089e-13
1.77636e-12
3.19744e-11
-6.83897e-11
2.44249e-11
2.17604e-11
-9.9476e-11
0
9.50351e-11
2.88658e-11
4.44089e-11
-6.92779e-11
4.88498e-12
6.88338e-11
-9.72555e-11
0
9.85878e-11
0
1.70974e-10
1.77192e-10
2.62013e-11
-2.39808e-11
4.44089e-12
3.24185e-11
-2.26485e-11
0
1.02141e-11
0
1.84741e-10
1.77192e-10
-6.4837e-11
-4.30767e-11
4.92939e-11
-1.73195e-11
2.13163e-11
3.4639e-11
-1.0747e-10
1.55431e-11
1.0969e-10
2.4869e-11
6.66134e-11
-6.03961e-11
4.44089e-12
6.88338e-11
-2.26485e-11
0
-2.70894e-11
4.44089e-13
2.21601e-10
1.77192e-10
7.99361e-11
4.44089e-12
1.04805e-10
-4.44089e-12
-1.55875e-10
6.12843e-11
8.88178e-13
0
1.68754e-10
1.18128e-10
-3.15303e-11
-1.84297e-10
2.09166e-10
1.84297e-10
0
0
-4.44089e-13
0
1.33227e-12
1.33227e-12
3.15303e-11
4.52971e-11
-5.01821e-11
4.88498e-12
0
-5.06262e-11
4.9738e-11
4.44089e-11
1.60316e-10
1.66089e-10
0
7.06102e-11
-8.43769e-12
1.9984e-11
-8.21565e-11
-8.43769e-12
5.77316e-11
0
2.0961e-10
1.85629e-10