/*--------------------------------*- C++ -*----------------------------------*\
  =========                 |
  \\      /  F ield         | OpenFOAM: The Open Source CFD Toolbox
   \\    /   O peration     | Website:  https://openfoam.org
    \\  /    A nd           | Version:  10
     \\/     M anipulation  |
\*---------------------------------------------------------------------------*/
FoamFile
{
    format      ascii;
    class       volScalarField;
    location    "0.7";
    object      gradTx;
}
// * * * * * * * * * * * * * * * * * * * * * * * * * * * * * * * * * * * * * //

dimensions      [0 -1 0 1 0 0 0];

internalField   nonuniform List<scalar> 
47104
(
1.3959e-13
-6.19299e-15
5.86824e-13
5.51545e-13
-1.94693e-13
1.55231e-13
2.56782e-13
5.25537e-14
-2.57264e-15
-1.39584e-13
9.32208e-15
-9.24761e-14
1.77081e-13
-5.11562e-13
1.36972e-14
1.7962e-11
4.28042e-13
-1.73957e-11
-1.36218e-11
-1.31264e-11
-1.39536e-13
9.21406e-14
5.28629e-12
1.93937e-14
-5.90722e-12
1.43548e-13
6.53436e-13
2.23745e-13
6.41274e-13
2.88441e-13
-1.17563e-11
-1.22827e-11
-6.4076e-13
1.31873e-13
-1.0534e-13
9.1529e-14
-5.54172e-13
-1.1979e-13
7.41569e-13
1.57889e-13
1.4855e-13
5.42096e-14
-4.26093e-14
-1.50007e-13
-1.59357e-14
-2.34639e-13
3.5623e-14
-1.49982e-13
1.7877e-13
0
0
8.54397e-13
1.64541e-13
-8.74391e-14
1.32638e-13
3.43714e-12
1.91473e-13
9.06791e-12
-3.63008e-13
-1.32205e-11
1.20365e-11
3.82665e-13
-1.21205e-11
4.27739e-13
-5.55882e-13
6.67922e-15
4.82651e-13
2.91152e-12
-1.83737e-13
-2.8161e-12
4.56183e-13
-2.05149e-13
-4.66138e-13
-1.76276e-11
-9.05061e-14
1.78884e-11
-1.40107e-13
-4.26248e-14
7.04264e-13
7.35228e-13
-1.39766e-13
1.76812e-13
5.56994e-13
-1.59196e-13
-5.49235e-13
1.03799e-13
1.38156e-11
-3.99071e-14
3.99657e-13
1.4301e-11
1.39609e-13
4.66196e-13
-1.21779e-13
-3.50837e-13
-1.34184e-11
4.06153e-15
1.27659e-11
-1.25567e-11
6.05906e-13
1.23843e-11
-1.49214e-13
-2.17131e-13
-2.76813e-12
8.18999e-14
2.82477e-12
-2.09818e-14
1.06673e-13
-2.00987e-13
1.01216e-13
4.47613e-13
-1.49336e-13
-2.25085e-11
-1.12287e-11
2.26522e-11
1.13412e-11
1.81743e-11
1.21077e-11
-3.28843e-11
-1.22922e-11
1.46341e-11
1.19445e-11
1.67591e-11
-1.0095e-11
1.16772e-12
-3.50106e-13
-2.86988e-11
5.56275e-11
-2.66719e-11
0
1.493e-13
1.49207e-13
-5.79463e-12
6.95034e-14
4.57472e-15
-3.53132e-11
3.53948e-11
-3.18502e-14
-2.3344e-11
-1.43181e-11
-7.46005e-13
-1.49167e-13
5.12275e-12
2.1768e-12
-2.34314e-12
3.16677e-13
-2.3389e-11
2.34017e-11
-6.41436e-13
-1.49565e-11
-1.47667e-11
1.23816e-11
1.28261e-11
5.59002e-13
6.53321e-13
1.03622e-11
-1.04168e-11
3.25531e-11
-3.1915e-11
-1.79856e-11
3.57993e-12
2.99957e-11
2.05638e-12
-2.27263e-11
-2.62443e-11
2.64945e-11
4.10624e-14
1.536e-13
3.31221e-11
-2.84133e-12
2.74555e-11
0
-2.61892e-13
3.68978e-11
-3.66379e-11
5.08556e-13
9.52966e-14
-1.40128e-12
2.58775e-13
5.49928e-12
0
1.25459e-11
9.88577e-12
-1.27488e-11
-9.64759e-12
-6.40616e-13
-1.83845e-13
-6.45228e-13
4.62919e-13
-1.15012e-11
-1.23956e-11
-1.4921e-13
3.06711e-13
-4.5374e-13
4.39411e-13
-1.93344e-11
-1.29708e-11
1.94899e-11
1.2821e-11
-2.29462e-13
-2.98422e-13
1.49189e-13
1.61667e-11
1.22349e-11
-1.63323e-11
-1.18832e-11
-6.42667e-14
-1.48531e-13
1.49571e-13
-1.54151e-13
0
8.65668e-12
-2.05711e-11
5.68178e-12
-3.09019e-11
3.11762e-11
-5.92946e-13
-4.15143e-13
5.19459e-13
1.77182e-13
-1.01483e-11
1.26738e-11
6.84111e-12
9.73177e-13
-1.0075e-12
1.67667e-13
-6.72694e-13
9.72237e-13
1.41822e-14
6.85161e-13
5.66567e-12
-8.93872e-12
3.28604e-11
1.49391e-10
-1.89659e-07
-1.36383e-08
3.13197e-09
4.00617e-08
1.65623e-08
1.32958e-13
-4.91612e-12
-2.98048e-13
3.61196e-13
2.91515e-10
-2.45042e-07
4.387e-08
-9.91106e-09
-1.23334e-07
2.57396e-08
-3.70811e-11
0
2.98074e-13
1.13052e-13
2.97757e-10
-2.51196e-07
4.65273e-08
-1.0557e-08
-1.2907e-07
2.63149e-08
2.55868e-13
-4.91773e-12
-5.81165e-12
1.14114e-11
3.2845e-10
-2.14182e-07
3.50334e-08
-7.81687e-09
-1.0204e-07
2.41071e-08
-8.96395e-14
0
-4.62389e-12
8.36421e-12
-2.1507e-11
-6.67789e-09
-1.31742e-09
3.00231e-10
3.67779e-09
-7.77584e-10
3.60319e-11
-4.47381e-13
1.49293e-13
1.90947e-11
-1.82017e-11
-3.58601e-11
3.46006e-11
1.48395e-11
-1.46801e-11
-3.35266e-13
-6.09922e-13
1.00013e-11
-1.47692e-11
1.72883e-11
1.45561e-11
-1.75493e-11
4.52444e-13
-6.65902e-13
-4.1339e-14
3.0378e-13
1.40471e-13
0
-1.29499e-11
-1.1791e-11
-7.29679e-14
-1.48744e-12
-1.82829e-11
-1.47791e-13
2.15569e-11
-1.12467e-14
-3.35969e-12
-1.48823e-13
1.48615e-13
4.46779e-14
-7.99336e-12
-4.3431e-11
-1.13978e-11
1.10901e-11
1.85379e-11
4.56842e-11
-8.84593e-13
-1.08473e-11
4.42901e-13
2.68699e-11
-4.12274e-09
-2.37218e-07
-1.23908e-09
1.28432e-09
1.08438e-08
5.88197e-07
9.68847e-08
6.2003e-12
-9.09475e-12
9.85635e-09
5.78655e-05
-0.900256
-0.00600883
0.000381247
0.0162061
0.734977
2.99369e-06
-1.42285e-11
-4.24836e-12
9.37311e-09
5.97297e-05
-1.39065
-0.0203584
0.00120731
0.0577098
0.947708
2.67199e-06
2.05083e-12
1.01092e-11
9.3175e-09
6.0099e-05
-1.39787
-0.0212215
0.00126745
0.0592562
0.95121
2.65652e-06
1.05475e-11
1.46734e-12
9.58662e-09
5.93562e-05
-1.3801
-0.0193438
0.00113944
0.0555387
0.94065
2.7283e-06
7.48173e-12
-1.62462e-11
6.86726e-09
5.91974e-05
0.165555
-0.0116207
-0.0128338
-0.0137586
-0.174392
1.62581e-06
5.31565e-12
1.48658e-13
4.93963e-13
6.99865e-09
1.92831e-08
7.65144e-10
-1.88253e-10
-3.60763e-09
-3.18579e-08
-4.85824e-11
4.31053e-12
-5.95366e-13
1.4321e-11
3.92384e-13
-1.42476e-12
2.44608e-14
-1.28955e-11
-9.68282e-14
1.55843e-11
1.56496e-13
-1.53316e-11
-7.43326e-13
-2.85815e-13
2.88155e-13
2.46934e-13
2.94232e-13
-5.34136e-15
-1.34245e-11
2.25889e-13
1.34991e-11
0
2.56716e-11
1.99471e-11
1.77051e-12
2.00626e-09
8.71742e-10
-1.46452e-10
-2.19463e-09
1.30255e-10
2.43364e-11
-3.85748e-12
2.30675e-11
-4.17644e-10
-1.93211e-06
0.0226903
0.000601036
0.000139543
-0.000968368
0.00104155
6.58349e-07
-2.48295e-11
-2.97546e-11
-1.47396e-07
-0.829026
0.00070457
2.72862e-11
-4.1926e-11
-3.1523e-07
-1.00669
0.000893217
4.55371e-11
-4.4535e-11
-3.03932e-07
-1.00855
0.000895224
7.14154e-11
-4.13873e-11
-3.35091e-07
-1.00364
0.000885297
3.13522e-11
5.7329e-12
1.549e-08
0.0160801
-5.26997e-05
8.9635e-12
-4.74957e-12
2.17021e-14
2.93435e-08
1.24068e-05
9.12996e-07
-1.89497e-07
-4.50189e-06
1.97945e-06
4.72145e-10
-4.45239e-12
-1.4865e-13
5.92682e-13
1.2567e-13
-1.30084e-11
1.31993e-13
3.12837e-11
-4.73748e-13
-3.05762e-12
6.757e-15
-1.62048e-11
2.23059e-12
-5.61147e-15
-2.10749e-12
1.65715e-14
1.89642e-13
-1.94191e-13
-1.15246e-13
-4.59202e-13
2.07511e-13
4.46039e-13
1.17347e-11
5.80647e-11
-2.8206e-11
1.88333e-09
1.18798e-09
-1.779e-10
-2.98407e-09
2.28014e-10
3.51978e-12
-5.34642e-12
-5.29335e-12
-4.82642e-10
-2.06466e-06
0.0283001
0.000762172
0.000109494
-0.00142339
0.00114423
6.89337e-07
2.24947e-11
-2.71223e-11
-1.1248e-07
-0.852293
0.000723462
1.10218e-11
-4.40211e-11
-3.34552e-07
-1.05089
0.000977794
4.214e-11
-3.46448e-11
-3.1988e-07
-1.0535
0.000981116
3.53579e-11
-3.49748e-11
-3.29512e-07
-1.04349
0.000963027
4.85854e-11
-1.58883e-11
5.0038e-09
-0.0282315
-5.60263e-05
-3.23496e-12
-1.29248e-11
-1.29574e-11
3.08912e-08
1.45648e-05
1.27124e-06
-2.78489e-07
-7.26238e-06
1.08949e-06
4.32674e-10
1.02506e-11
1.48683e-13
8.21246e-14
1.43472e-11
4.68605e-13
-1.46637e-11
-1.39191e-13
-1.42995e-14
1.41684e-11
-1.34732e-13
-1.41275e-11
-1.63671e-12
-6.96998e-13
6.50782e-13
-5.06706e-13
1.82428e-13
1.31435e-13
-5.04771e-14
-1.33862e-13
1.78205e-13
-1.48767e-13
3.71688e-12
-4.77071e-11
4.55309e-11
1.68109e-09
1.22324e-09
-1.881e-10
-2.99271e-09
2.22654e-10
-2.8536e-13
1.82826e-11
2.60527e-11
-4.73272e-10
-2.07071e-06
0.0284215
0.00074954
7.56663e-05
-0.00147715
0.00115073
6.93165e-07
-6.62167e-12
-2.96139e-11
-1.01947e-07
-0.852964
0.000724964
2.35082e-11
-3.92797e-11
-3.1877e-07
-1.05273
0.000981462
2.32452e-11
-1.11201e-11
-3.01132e-07
-1.05564
0.000984945
3.72508e-11
-1.84408e-11
-3.51748e-07
-1.04883
0.000966292
2.13325e-11
5.88968e-13
1.17681e-08
0.0173927
-5.62792e-05
3.23773e-11
-6.98842e-12
2.84155e-11
3.08536e-08
1.4727e-05
1.32123e-06
-2.36949e-07
-5.43188e-06
2.29408e-06
5.10608e-10
9.21877e-12
-1.66617e-11
-2.35157e-13
3.53733e-12
1.39027e-11
2.7383e-11
-1.40674e-11
-1.76631e-11
2.01501e-13
3.38342e-12
-1.48797e-13
-2.54548e-11
1.36562e-14
2.53742e-11
3.5097e-13
1.50528e-11
-1.28765e-11
-1.44898e-11
1.24702e-11
5.78363e-13
5.9536e-13
2.975e-13
-2.24436e-12
7.74256e-12
1.65326e-09
1.2217e-09
-2.03561e-10
-2.95307e-09
1.98946e-10
6.12442e-14
5.9487e-13
-4.1245e-12
-4.58555e-10
-2.06178e-06
0.0284429
0.00074795
7.10891e-05
-0.00148359
0.00115049
6.90151e-07
5.88925e-12
-2.81897e-11
-2.17798e-07
0.0995467
0.000725279
3.97859e-11
-3.62756e-11
-3.19811e-07
-1.0515
0.000981816
3.90094e-11
-3.52619e-11
-3.00258e-07
-1.0558
0.000985303
3.45311e-11
-5.08519e-12
-3.4993e-07
-1.04921
0.000966616
2.72997e-11
5.59851e-12
1.17718e-08
0.0174086
-5.63113e-05
3.82855e-12
-1.08603e-11
-3.00408e-11
3.07554e-08
1.47355e-05
1.32172e-06
-2.57438e-07
-5.8633e-06
2.23189e-06
4.81077e-10
2.97536e-13
0
-1.33575e-11
-1.51246e-13
2.83977e-11
3.73891e-14
-1.45561e-11
-4.1089e-13
-2.3874e-14
-7.48175e-15
0
2.38246e-12
-3.44727e-13
-3.06284e-12
-4.94373e-12
-1.84618e-13
4.84642e-12
-3.28395e-13
-1.88073e-13
8.57308e-13
1.48897e-13
-9.67138e-12
7.68115e-14
1.63817e-11
1.78482e-09
1.19722e-09
-1.80822e-10
-3.03529e-09
2.16451e-10
6.68336e-11
-4.16574e-12
-1.22325e-11
7.90501e-11
-2.0607e-06
0.0283786
0.000745673
8.22917e-05
-0.00145867
0.00114752
6.86267e-07
-5.45097e-12
-2.51644e-11
-2.1995e-07
0.184726
0.000725056
2.25332e-11
-4.24088e-11
-3.32882e-07
-1.0508
0.000979516
3.96482e-11
-5.31188e-11
-3.13781e-07
-1.05494
0.000982862
5.54217e-11
-3.22922e-11
-3.60352e-07
-1.04848
0.000964684
2.76227e-11
-2.80095e-12
1.17829e-08
0.0174061
-5.62351e-05
-1.1198e-11
4.76249e-12
1.6662e-14
3.06762e-08
1.45834e-05
1.27258e-06
-2.76831e-07
-7.25906e-06
1.08535e-06
4.88947e-10
-1.48823e-13
-1.48892e-13
-3.26868e-14
6.2809e-13
-5.08624e-12
-5.24749e-13
4.73815e-12
-4.30291e-13
1.95141e-13
-4.73197e-13
-2.9785e-13
-1.48928e-13
-5.66922e-14
-1.55086e-11
-1.0001e-13
1.53988e-11
1.00828e-13
-1.02484e-14
1.72437e-11
-2.87258e-13
-1.71279e-11
1.87503e-11
2.33166e-11
5.36058e-12
3.71149e-10
2.15929e-10
-3.98317e-11
-6.24013e-10
1.31302e-10
2.54956e-11
4.46475e-13
2.18249e-11
-4.35334e-10
-2.04127e-06
0.0240375
0.000582122
7.77767e-05
-0.00109388
0.00110926
6.70016e-07
2.19698e-11
2.1861e-11
-3.79132e-08
-0.838121
0.000619977
1.50072e-11
2.17762e-12
-5.76109e-08
-1.02178
0.000707625
1.59654e-12
2.41008e-11
-4.23716e-08
-1.02406
0.00070862
1.45143e-12
-4.81087e-12
-9.51681e-08
-1.01909
0.000707816
4.66272e-12
-1.7704e-11
9.75752e-09
0.0165146
-5.00308e-05
3.09686e-12
-6.40134e-12
-7.1807e-13
2.73509e-08
1.03689e-05
7.3795e-07
-1.32893e-07
-3.08085e-06
1.78239e-06
4.86725e-10
4.466e-13
-1.4893e-13
2.4236e-12
1.72719e-11
-2.09167e-12
-1.71955e-11
-1.98355e-11
-1.7411e-11
1.99817e-11
1.7757e-11
1.48962e-13
-1.48929e-13
-1.83162e-13
1.30518e-11
-3.56573e-13
-1.12798e-12
5.97114e-13
-1.27773e-11
4.70999e-13
9.42177e-13
-4.46866e-13
1.48808e-13
-6.10581e-13
-2.70879e-11
2.07361e-11
-1.06098e-12
2.94465e-13
2.48703e-12
-3.35808e-11
5.77753e-11
-8.93033e-12
-5.30875e-12
-2.30214e-11
-1.24623e-07
1.58336e-06
4.45026e-08
-8.2583e-09
-8.7345e-08
-7.4501e-06
2.10542e-08
-4.12869e-12
1.45742e-13
4.11622e-10
-0.000213626
-7.05618e-07
2.9141e-13
-4.50118e-12
4.52431e-10
-0.000220344
-7.39269e-07
1.58208e-11
1.45216e-13
4.10822e-10
-0.000213172
-7.41617e-07
1.4515e-13
1.95375e-11
4.45708e-10
-0.000220149
-7.31405e-07
-2.66668e-11
0
-1.81765e-11
-0.000195992
-2.5942e-07
5.8992e-12
-5.06217e-12
4.0606e-12
4.31266e-10
-6.72897e-09
-5.16779e-10
1.08981e-10
1.81036e-09
5.70715e-09
-4.70872e-12
-1.48875e-13
4.46835e-13
-5.64805e-13
1.55052e-11
-1.10799e-11
-1.59645e-11
1.21497e-11
-8.71146e-14
-3.68587e-14
6.98085e-14
-1.48971e-13
-6.55227e-12
-1.8037e-11
-1.19247e-11
3.30687e-13
3.83201e-13
-1.05273e-12
-6.68569e-13
1.20035e-13
4.61372e-14
0
-3.03528e-11
-2.00028e-11
2.53149e-11
-2.51317e-11
2.49802e-11
-2.53878e-11
-2.6251e-11
2.64762e-11
2.48758e-13
-3.86934e-12
-1.47353e-13
-2.94331e-11
-3.16982e-11
-6.30748e-11
1.71145e-12
-7.08524e-11
-1.18096e-12
1.15026e-12
4.38101e-11
-2.51959e-11
6.10771e-12
3.90748e-11
-5.18375e-11
-9.43848e-13
0
5.79035e-13
3.00052e-13
-2.29805e-11
-3.6573e-13
0
-5.79097e-12
1.20504e-11
1.02278e-13
5.18045e-11
-9.26262e-12
9.01954e-12
4.17973e-12
-5.71105e-12
-3.64231e-13
-1.6142e-11
1.93153e-11
1.81351e-11
1.43545e-13
9.5048e-13
-2.7856e-11
1.48876e-13
-4.37038e-13
7.19419e-13
-2.36613e-11
2.34457e-11
-2.74932e-11
2.79227e-11
-3.01447e-11
3.18906e-11
1.13128e-11
-1.47449e-11
-1.9537e-11
3.13603e-12
1.97263e-11
1.19312e-11
3.67522e-14
-1.74781e-11
-1.24474e-11
1.7624e-11
1.28104e-11
-1.57837e-11
1.27128e-11
1.57249e-11
-2.78942e-11
-2.37439e-13
5.53564e-12
3.80766e-13
9.59473e-12
-1.56648e-13
2.97875e-13
4.46337e-12
-3.74541e-11
2.82826e-11
1.99273e-12
-1.95626e-12
-3.48625e-11
3.49835e-11
-1.47092e-12
4.08564e-13
-2.5892e-11
1.4729e-13
3.44441e-13
-2.60682e-13
-5.79757e-13
-5.8972e-13
7.48187e-13
1.26364e-12
5.00782e-11
-7.98636e-12
-2.94573e-11
-1.45264e-13
-3.96202e-11
5.42668e-11
3.77865e-12
-1.62682e-11
-2.61622e-11
-2.67672e-11
-4.13216e-14
-4.1087e-11
7.22641e-13
1.44554e-13
-2.97735e-11
4.02159e-11
-1.90775e-12
-2.6017e-12
-1.93251e-11
-3.4535e-11
3.14059e-11
-1.36312e-11
-2.33936e-11
1.62091e-12
-2.34692e-11
5.27107e-11
-5.26799e-11
1.47352e-13
1.4587e-11
9.72499e-12
1.24483e-12
9.05756e-12
-9.28541e-14
-3.22785e-11
-2.92696e-12
3.22277e-12
3.17171e-11
-2.02421e-11
2.97845e-13
3.02649e-13
7.60923e-13
3.78181e-13
-1.30929e-12
-6.88288e-13
1.50176e-11
-1.29205e-13
-1.50353e-11
8.93643e-13
-5.9558e-13
1.70599e-13
3.04743e-13
-1.44027e-13
-1.51083e-13
1.20988e-11
-1.29822e-11
-1.20854e-11
1.32176e-11
0
1.4877e-13
-2.38324e-14
5.95492e-13
2.73512e-11
-6.07293e-11
3.29871e-11
2.51808e-13
2.94211e-13
2.90412e-13
-7.43998e-13
-6.33282e-12
-6.91274e-13
-2.0392e-11
7.20456e-11
5.95794e-11
-5.85924e-13
-6.6003e-11
1.92185e-12
5.85131e-13
1.47274e-13
2.1059e-11
1.62588e-11
-2.26956e-11
-2.68951e-12
-3.18045e-11
-4.76856e-12
-9.66379e-13
4.59434e-13
1.29695e-11
-1.79173e-11
-7.22565e-13
6.54879e-13
3.25141e-11
5.8731e-13
-1.30052e-12
2.61501e-12
-1.18085e-11
-2.17082e-11
3.69067e-11
-4.64825e-12
2.57831e-11
4.12417e-11
-8.43919e-11
1.1337e-13
8.69181e-12
0
-7.84729e-15
-6.04071e-13
2.40865e-11
1.61822e-11
-3.99097e-11
2.42016e-11
-2.4306e-11
-5.89782e-13
-2.79801e-11
-1.4891e-13
1.93675e-11
1.83846e-11
-3.78894e-11
-1.81394e-11
1.83378e-11
-1.84392e-13
3.127e-13
-1.04365e-12
-1.04252e-12
5.95574e-13
7.34734e-13
-2.14125e-13
2.61702e-13
-1.27068e-15
-6.00003e-14
-5.33465e-14
-1.11453e-11
-6.17999e-12
5.21263e-12
5.8016e-12
-2.57215e-11
2.53058e-11
-6.09458e-13
-4.3602e-13
2.1817e-14
2.44973e-13
2.94195e-13
3.68998e-11
-5.80324e-12
-1.47291e-12
-3.18127e-13
-1.90814e-11
8.11636e-11
-1.05836e-12
-9.70832e-13
1.29502e-12
4.66133e-11
-2.58514e-11
-8.2482e-12
-2.68776e-11
1.06039e-11
-4.40946e-11
1.45346e-13
-6.53704e-12
-1.67689e-11
-1.56436e-11
1.00535e-12
-1.06219e-11
4.33658e-12
-8.67426e-13
2.39777e-14
3.86948e-12
6.67902e-12
-5.7823e-13
0
-7.48264e-15
-7.51358e-11
-1.42962e-11
7.4094e-12
-1.47359e-13
-9.80501e-12
2.54695e-11
-1.25881e-11
-1.47316e-12
4.46455e-13
2.74239e-13
2.41692e-11
1.00864e-11
-3.47276e-11
-2.84263e-13
-3.2425e-13
2.01536e-12
2.07303e-13
3.86957e-12
1.4891e-13
1.42527e-13
-1.92734e-14
9.97274e-14
-1.47017e-13
8.90724e-14
-2.89403e-14
1.60813e-13
-1.74119e-11
-1.74253e-11
0
2.19879e-13
-3.42015e-13
1.29343e-14
2.39771e-13
-7.48157e-14
6.64843e-14
2.1589e-14
5.42513e-14
1.48946e-13
-1.48766e-13
3.70555e-13
-2.44187e-13
6.86857e-13
5.79952e-13
4.14117e-13
1.18038e-12
-8.82347e-13
5.42034e-14
-4.31557e-12
1.47355e-13
-1.40056e-11
2.38123e-13
2.89709e-12
3.01252e-12
-7.61274e-11
-5.09306e-11
1.12481e-12
1.43918e-11
-3.83135e-12
3.01132e-11
6.02958e-12
1.28582e-12
5.80728e-13
-2.00733e-11
5.50301e-12
-2.82155e-11
1.16766e-11
-3.921e-11
6.95085e-12
-2.89652e-13
3.33638e-11
-4.49171e-11
-3.62785e-11
1.01368e-12
-6.4024e-12
2.19149e-11
-3.88506e-11
-1.7486e-12
-4.21838e-12
2.55024e-11
3.7288e-11
-2.04192e-11
-3.51007e-11
4.27382e-12
-1.63712e-12
-9.10267e-12
1.0264e-11
-2.83588e-13
3.42013e-13
-4.56628e-14
3.37814e-11
-4.5717e-13
-3.43971e-12
-8.48391e-12
-1.48925e-13
-2.53069e-14
3.95141e-13
-1.31636e-11
-1.40982e-11
1.36267e-11
1.34198e-11
-7.37925e-13
-1.735e-11
-1.81721e-11
-2.97865e-13
1.62662e-13
2.77733e-13
-1.47819e-13
-1.50453e-13
-1.74452e-13
9.31085e-14
1.60344e-11
-1.58431e-13
-1.57912e-11
2.47027e-11
-6.40027e-12
2.58829e-11
6.07701e-13
3.0654e-13
-5.27532e-13
-1.29828e-13
7.313e-14
1.58925e-13
7.44283e-13
3.83427e-12
3.93303e-12
-4.59746e-13
1.59385e-12
-7.1048e-13
1.79486e-12
1.13473e-10
4.66015e-11
0
-5.89987e-13
-1.31198e-12
-4.01859e-11
8.241e-11
3.22453e-12
0
-2.90451e-13
-7.49708e-12
-7.75402e-11
-3.68492e-13
4.79227e-12
4.35701e-13
1.22135e-12
-5.45248e-12
-7.38287e-13
4.35664e-13
0
-2.76795e-11
3.82967e-11
5.65266e-12
1.45769e-13
0
-2.41344e-13
4.64216e-11
-1.13226e-11
1.47494e-13
-5.21082e-12
-8.06261e-13
-6.52957e-12
-7.12889e-12
2.50784e-11
-2.52926e-11
-5.13594e-13
3.42265e-11
-4.36001e-11
1.71216e-11
1.57898e-11
2.44781e-13
-2.77619e-11
-1.26268e-13
1.18182e-11
-1.92863e-13
9.50591e-12
-7.92124e-14
-9.93034e-12
-2.97966e-13
0
-5.02902e-13
5.41472e-14
1.05613e-13
9.18718e-14
3.11664e-15
-4.85478e-12
-4.32158e-15
6.13484e-13
-4.46957e-12
-1.84565e-11
-1.76521e-11
2.35291e-11
-2.44133e-11
3.887e-11
-3.85246e-11
-2.70177e-13
-8.83651e-13
5.08073e-13
5.21056e-12
4.12944e-12
-2.26264e-13
5.25379e-13
4.37618e-13
-4.32888e-13
3.62976e-13
4.66993e-11
7.93786e-13
-2.51928e-11
5.30914e-12
-2.19967e-11
-5.57963e-11
1.76039e-11
7.29413e-14
1.74784e-12
5.22198e-12
-8.66061e-12
2.18957e-11
2.2112e-13
8.41268e-12
1.45061e-13
3.24006e-11
-3.8481e-11
3.25597e-11
2.66889e-11
7.28426e-13
6.60427e-13
3.67517e-11
2.7974e-11
-1.17981e-11
-1.91767e-12
-2.07161e-11
1.6645e-11
-1.98355e-12
-5.89946e-13
-9.23215e-12
-4.40831e-13
-7.14918e-13
-2.85025e-11
2.91067e-11
-9.7784e-13
2.00797e-12
-2.69198e-11
-9.87185e-12
7.14766e-12
-1.47489e-11
-1.17606e-11
1.50749e-11
1.14029e-11
-8.21525e-14
2.6388e-13
1.95141e-13
1.22413e-13
2.1166e-13
-4.47009e-13
0
6.64174e-13
1.72711e-13
-4.75012e-13
4.14423e-13
-1.20124e-11
1.16831e-11
1.19846e-11
-1.23804e-11
1.48972e-13
-3.5123e-11
-5.20605e-12
-5.21348e-11
-1.31954e-11
3.95557e-11
-3.22814e-11
3.25685e-11
3.32623e-13
-1.48857e-11
1.04186e-12
0
3.87485e-13
-1.88558e-12
1.73739e-12
1.35472e-13
-4.85019e-11
-2.91592e-11
5.02805e-11
-1.93446e-13
5.89419e-13
4.21663e-12
-2.72093e-11
-1.543e-11
4.57494e-11
-1.10477e-11
-4.34031e-12
9.38995e-13
-6.65569e-11
-3.43111e-11
5.7866e-12
1.96771e-11
1.97386e-11
1.89409e-12
-1.00409e-11
6.51013e-12
-4.65354e-12
8.51321e-12
-3.2567e-11
-9.39935e-12
-9.44942e-12
1.28254e-11
2.56335e-11
4.027e-12
-1.02247e-11
-3.2424e-11
-9.37905e-12
2.4234e-11
1.54003e-11
-2.27045e-12
-1.02815e-11
-2.6338e-11
3.32829e-11
-7.02331e-12
-2.88029e-11
-2.32266e-11
1.48969e-13
-1.72237e-13
-1.78507e-11
-2.68153e-13
1.77412e-11
1.35479e-13
-8.0063e-14
5.75631e-15
6.53175e-14
1.48999e-13
0
1.34934e-11
-1.28359e-11
-1.34455e-11
7.73824e-13
-7.90657e-15
1.21799e-11
1.1514e-15
-2.44462e-14
1.48977e-13
1.4883e-12
-8.95012e-14
-8.93349e-13
8.08355e-13
-2.33459e-13
-1.56068e-13
-4.00797e-13
2.36034e-11
-2.41411e-11
5.95317e-13
3.97831e-12
-9.56616e-12
7.40284e-11
1.73955e-12
5.89797e-13
2.42884e-12
-3.8082e-13
5.16641e-11
9.41501e-12
2.93165e-11
-5.52184e-12
2.18605e-13
3.10054e-11
2.95088e-11
-5.81127e-13
5.78267e-12
-3.25513e-11
4.82964e-11
7.69167e-12
4.04756e-12
-4.19272e-12
-1.31215e-12
3.28457e-12
1.10089e-11
-5.05981e-12
2.61635e-11
2.1074e-11
2.48723e-11
3.15817e-11
-3.09512e-11
-2.94798e-13
6.92746e-12
-1.06471e-11
1.38319e-11
-1.63577e-11
2.97739e-13
8.79863e-14
3.62524e-11
-3.57795e-11
-3.11188e-11
3.09548e-11
-1.44748e-13
0
-1.74783e-13
4.91357e-12
-7.44865e-13
1.08861e-13
1.10406e-12
1.73585e-11
-9.60747e-13
-1.22759e-11
1.79746e-11
-5.33171e-12
-1.77515e-11
1.49011e-13
1.3412e-11
1.29505e-11
-6.77141e-13
9.93827e-14
1.44948e-11
1.205e-13
-1.44651e-11
1.32457e-14
-2.60084e-13
0
2.03975e-11
-6.31972e-12
2.68157e-11
9.02826e-14
2.10233e-13
-1.12575e-12
6.49663e-13
0
-2.53876e-11
2.50109e-11
2.94799e-13
-5.11124e-11
7.07397e-11
5.81139e-13
8.02242e-11
5.58592e-11
-7.16072e-11
-4.90501e-13
-3.28668e-11
4.27382e-12
-1.83181e-11
-2.07709e-11
5.17783e-12
1.35921e-11
8.72116e-13
1.44649e-13
-2.31363e-13
1.15297e-12
1.03297e-11
1.02694e-11
2.89316e-13
-5.88195e-14
-1.09866e-11
8.73408e-12
1.53343e-11
5.67139e-12
-1.1006e-12
4.19189e-12
2.63328e-11
-4.3628e-12
-4.42325e-13
-1.47385e-12
-2.87776e-13
-2.86981e-11
3.09656e-11
5.65841e-12
3.48269e-11
-4.59189e-11
1.04408e-11
-3.95892e-11
1.1854e-11
-1.0874e-12
2.84026e-11
2.58084e-11
2.69614e-11
-1.49017e-13
-4.48321e-12
5.07762e-13
1.59165e-11
-2.73511e-13
-1.15065e-11
-1.11146e-13
-1.34894e-11
-5.75769e-15
1.3565e-11
5.0706e-12
6.84041e-15
-5.71619e-12
-4.80976e-14
4.12459e-13
2.18604e-13
1.11339e-13
-1.68019e-13
-1.43816e-11
-1.44658e-11
-3.8746e-12
3.03196e-13
2.97993e-13
4.15187e-13
-8.73898e-14
2.36287e-11
-2.38276e-11
3.15087e-11
-3.19596e-11
-4.17214e-12
-1.62391e-11
1.43829e-11
1.19756e-12
-5.40368e-11
-2.35867e-12
-1.3612e-12
-5.11988e-11
3.86552e-13
8.96754e-12
5.16571e-12
-1.4574e-13
3.6894e-14
-2.26644e-12
-7.91587e-12
0
-1.46522e-11
-3.27832e-11
2.62926e-13
1.03899e-11
1.71172e-11
0
2.61546e-11
-9.70861e-12
-1.04811e-11
3.48216e-12
2.49249e-11
2.46446e-11
8.74727e-13
1.00662e-11
-1.93907e-11
-1.47649e-13
-3.38355e-11
5.76764e-11
0
2.65835e-12
-2.38445e-12
-1.22068e-11
-2.65753e-11
2.52455e-11
-2.35869e-12
3.162e-11
-2.90359e-11
8.77842e-13
4.28896e-13
4.05531e-11
0
-1.25933e-11
1.2713e-13
1.24141e-11
-1.4264e-13
7.66315e-14
4.72083e-13
-1.41826e-13
-1.77536e-13
4.47521e-13
0
2.22152e-13
7.87292e-14
-2.23468e-13
9.02068e-14
4.35971e-14
-8.77981e-14
-8.30269e-14
-1.80898e-11
-1.82094e-11
7.46251e-12
-5.02373e-13
5.96371e-13
-9.88363e-14
4.87067e-13
-2.96224e-13
-9.70888e-13
5.02523e-13
-3.23111e-11
-1.22373e-11
4.44584e-13
6.41082e-12
-6.50093e-11
5.21683e-12
2.39085e-13
2.08754e-12
-1.13319e-12
-7.05495e-11
-4.93563e-11
2.96339e-13
2.14346e-11
-2.03588e-11
4.53571e-11
-2.04577e-11
0
-1.4784e-11
2.27021e-12
-3.21169e-12
4.23673e-12
-6.87886e-12
5.85524e-13
6.70592e-13
2.81568e-11
1.52891e-11
-4.09849e-12
1.1746e-12
3.23637e-11
-4.25753e-11
2.2053e-11
-4.11106e-12
-5.33541e-12
-4.42604e-13
2.78366e-11
-3.47531e-11
4.1504e-12
2.35803e-11
-7.29809e-12
-6.94809e-12
3.1016e-11
1.10562e-14
3.07782e-13
1.89928e-13
-8.76535e-13
1.05226e-12
-5.67358e-12
-1.20883e-11
-1.18926e-11
1.4395e-11
2.48834e-13
-1.44104e-11
-4.23844e-14
3.04844e-13
1.47672e-11
-2.4998e-13
-1.49292e-11
-2.98453e-13
1.30829e-11
1.96135e-13
-1.25231e-11
-1.00111e-14
-1.72323e-11
-4.5817e-14
1.6773e-11
3.85365e-13
0
1.49299e-13
7.02837e-13
-5.97851e-13
8.87274e-14
-2.08093e-13
1.29259e-13
-5.99862e-13
5.24621e-13
2.50578e-12
-4.92615e-12
3.86939e-12
-8.02604e-12
-2.87016e-11
4.58283e-13
-5.38825e-13
-3.84342e-13
-6.68166e-13
-2.78881e-13
9.16554e-12
1.66652e-11
1.24518e-11
3.49345e-11
-8.55148e-11
1.16614e-11
2.96408e-13
3.85042e-12
4.31043e-13
-8.6821e-12
7.41365e-12
-1.03645e-11
2.9027e-11
1.8698e-11
-1.49836e-12
-7.53261e-12
2.29512e-11
8.15354e-12
-9.86123e-13
2.54343e-12
1.03061e-11
1.03756e-12
-7.44134e-12
1.69867e-11
2.90319e-13
-2.22674e-12
-8.92995e-13
2.23921e-11
2.25517e-11
-2.25492e-13
-1.54687e-11
6.0123e-12
-1.79135e-13
-2.49161e-11
2.61176e-11
2.50237e-14
-2.03082e-11
-1.49187e-13
-1.34062e-11
3.47276e-14
1.32688e-11
1.47078e-13
4.14097e-14
1.40297e-13
5.37528e-13
1.27568e-14
-7.46162e-13
-1.08687e-11
-5.46726e-12
2.33419e-11
1.76269e-11
2.99751e-14
5.45112e-13
1.51608e-11
-4.62313e-13
-1.53957e-11
1.48867e-13
-9.97469e-12
4.58472e-11
-5.37925e-11
5.30462e-11
-3.39446e-11
2.41894e-11
-2.4087e-11
6.2842e-13
2.14939e-14
-2.05404e-11
-1.48607e-13
-2.62375e-13
0
-1.63963e-11
1.95109e-11
1.63283e-11
1.26322e-11
-4.68548e-11
-3.68237e-11
2.13947e-11
-1.48355e-13
-2.41077e-11
4.31018e-12
3.00558e-11
-6.50862e-11
3.76397e-11
-7.97054e-12
2.85681e-12
3.70202e-13
4.89479e-12
-5.93236e-13
7.57577e-12
7.51592e-11
8.81248e-12
-2.88713e-13
2.62256e-11
-1.82229e-12
-3.19249e-11
3.60542e-11
2.20943e-11
-2.66957e-12
-3.13515e-11
4.15804e-11
-9.16083e-12
2.90125e-13
-8.21978e-13
-3.03387e-13
-5.80332e-11
-1.2553e-11
1.48288e-13
-4.45072e-13
-2.87842e-13
-1.37716e-11
-1.47537e-11
-3.03384e-12
3.23383e-11
-2.82168e-11
3.69817e-11
-3.29412e-11
5.63688e-12
-7.72704e-12
-1.62934e-12
-5.0997e-13
-1.70753e-12
6.05455e-11
8.60558e-13
-2.33798e-12
2.16982e-12
7.7723e-12
2.08036e-12
-1.78626e-12
2.26846e-13
-3.35803e-11
3.39316e-11
-1.61566e-12
1.38034e-12
-3.17307e-11
3.20408e-11
1.04055e-13
-2.53101e-12
2.97691e-13
2.51276e-13
-3.6688e-14
1.25604e-11
-4.79029e-13
3.00638e-14
4.54931e-13
-1.2415e-11
-3.50328e-13
0
-1.48471e-13
-3.00578e-12
-1.14383e-13
-4.26975e-13
-1.62193e-11
3.31091e-12
3.283e-11
1.25986e-11
-1.84924e-12
2.22687e-12
1.51341e-11
-1.84396e-11
-1.59049e-11
1.80699e-11
6.91025e-13
-2.26498e-11
-1.00305e-11
2.31053e-11
-1.74736e-11
6.52763e-12
1.4817e-13
4.46842e-12
-7.82088e-12
-2.99559e-11
2.98429e-11
-1.02964e-11
1.03815e-11
4.5372e-13
8.82457e-12
-1.48147e-13
0
6.63873e-12
1.08428e-13
-6.70909e-12
7.08986e-12
2.60193e-11
-2.58804e-11
-1.89982e-13
-1.062e-11
-1.47995e-11
-1.4798e-13
-2.95151e-13
-3.87875e-11
1.57298e-11
9.60429e-14
-5.79467e-12
1.44146e-13
-3.46862e-11
1.16561e-11
-2.95927e-13
1.62779e-11
2.5384e-11
-9.02708e-12
1.74287e-11
-1.61933e-11
-8.10905e-12
-7.62097e-14
3.32718e-11
-5.20081e-12
-1.47966e-11
1.67261e-11
-1.05594e-11
-2.21505e-11
-2.24819e-12
5.33022e-11
-9.70769e-12
-5.80508e-11
3.28663e-11
9.62475e-12
-1.48007e-13
-2.40139e-11
-2.04731e-11
-2.58782e-11
2.57502e-11
-4.59218e-13
-2.48622e-11
2.37742e-11
-3.76603e-13
-2.47902e-11
1.33411e-12
1.48374e-13
2.18663e-14
3.0864e-11
-6.26913e-13
-1.64279e-11
-5.53633e-12
-1.4751e-12
-1.82046e-11
1.76947e-11
1.88449e-11
1.58836e-11
1.31686e-11
-1.13545e-13
1.73546e-11
1.04403e-13
-1.44179e-11
-1.03593e-12
-1.68938e-11
2.72142e-12
1.8261e-11
-7.41011e-13
-1.16948e-12
-3.00241e-12
1.78083e-13
2.63688e-12
-2.23355e-14
9.77254e-14
4.48578e-13
7.24754e-13
-1.48196e-13
-1.4812e-13
1.14651e-13
-1.559e-14
8.44715e-14
5.37009e-14
-4.34341e-14
-3.5022e-14
-5.88933e-14
-3.46819e-14
-1.48112e-13
-5.18023e-12
-5.16393e-12
2.84552e-13
-2.08748e-13
1.65767e-11
1.10388e-13
-2.89541e-11
1.70096e-14
1.24051e-11
0
2.63303e-11
1.33966e-11
-1.58514e-11
-1.7957e-11
2.75801e-12
1.79959e-11
1.01713e-13
2.25013e-13
-9.29504e-14
-2.95839e-13
-1.80434e-11
-5.84322e-14
1.82619e-11
4.91814e-13
-2.52046e-13
-6.27026e-13
-3.40599e-13
-1.66533e-11
6.80909e-13
1.6269e-11
4.4369e-13
-1.55571e-11
-6.19062e-13
1.6133e-11
-3.63609e-14
-1.14843e-11
1.74922e-14
1.1396e-11
-8.68004e-14
0
-1.47925e-13
-2.00487e-11
2.30344e-15
1.91778e-11
-2.35905e-14
1.24473e-11
1.37064e-13
-1.20389e-11
-2.32305e-13
0
-1.27292e-11
-1.30284e-11
1.01948e-13
7.20759e-14
-4.05947e-14
-1.88981e-11
1.5957e-14
1.887e-11
2.1324e-13
1.48019e-13
0
2.66255e-14
1.42277e-11
-2.22071e-13
-1.43487e-11
1.99275e-11
3.95833e-13
-1.98763e-11
1.9935e-13
1.48122e-13
0
-4.53928e-13
-2.02171e-14
3.32292e-13
-3.92087e-14
6.66241e-13
4.92232e-14
-5.47286e-13
1.57853e-14
0
1.48052e-13
1.24502e-11
2.81689e-14
-1.21895e-11
2.04837e-13
-8.5193e-14
-1.34341e-11
-3.85464e-13
1.29212e-11
1.48051e-13
0
-6.30909e-13
1.21765e-11
4.1444e-13
-1.19647e-11
5.1507e-12
-1.89216e-13
-5.28939e-12
-3.84812e-14
1.48001e-13
1.27229e-11
1.29271e-11
1.47607e-13
2.2499e-13
-2.99798e-13
-1.34473e-13
-1.16838e-11
-1.20803e-11
1.20917e-11
1.18352e-11
1.21273e-11
1.24243e-11
-1.58792e-11
-1.21161e-11
1.24565e-11
8.94848e-12
-1.28871e-11
3.36942e-12
1.63974e-11
1.47898e-13
-1.34567e-11
-1.41308e-11
1.2562e-11
3.0055e-11
2.23367e-11
-1.7039e-11
-2.29212e-11
5.92326e-13
1.9149e-12
7.3943e-13
1.47875e-13
-2.83636e-14
-1.83288e-13
1.68116e-13
5.88457e-13
-2.89179e-16
5.10244e-13
-2.85263e-13
-8.71774e-13
-1.47888e-13
-1.67119e-11
-1.25997e-11
1.68172e-11
1.23823e-11
-1.68648e-11
-1.70766e-11
1.71291e-11
4.07303e-12
-1.37005e-13
1.28677e-11
1.47939e-13
1.14058e-13
-1.2338e-14
4.25037e-13
-1.23028e-13
-6.37056e-13
-1.26213e-13
1.53061e-13
1.32939e-11
1.31674e-11
-1.65758e-11
-1.56483e-11
1.65382e-11
3.27174e-11
6.58916e-13
-1.74928e-11
-6.38023e-13
1.87284e-13
-5.03537e-14
0
1.48043e-13
-8.28235e-13
-2.95295e-13
1.09428e-12
-1.39991e-11
-3.52773e-13
-2.21199e-12
2.03996e-11
1.60404e-11
-1.98388e-11
-1.30214e-11
-1.2942e-11
5.17132e-13
-4.35978e-13
-4.70612e-13
5.68446e-13
-3.45677e-13
-2.2272e-13
3.10872e-13
-1.47972e-13
-5.91772e-13
1.7084e-11
1.76185e-11
-4.87237e-13
-1.53354e-11
2.08258e-13
1.46383e-11
1.2987e-11
3.49685e-14
-1.28713e-11
-1.33119e-12
1.26815e-11
2.43735e-12
-1.185e-11
-7.13092e-13
1.20991e-11
2.84851e-11
1.9674e-15
-1.6377e-11
-1.47914e-13
8.87305e-13
1.17557e-12
1.44022e-13
-1.76984e-11
-1.87253e-11
1.75707e-11
1.89671e-11
-3.83013e-14
4.56968e-13
5.9157e-13
1.59702e-11
1.56421e-11
-3.86245e-13
-1.54884e-11
1.60937e-13
1.57263e-11
-1.38894e-11
1.2355e-11
1.69783e-11
-8.57732e-12
1.59702e-11
1.20959e-13
-1.59511e-11
2.51322e-14
1.06641e-13
-1.12642e-13
-2.33262e-13
1.76075e-13
1.20961e-11
1.19788e-11
0
1.29568e-11
-1.6188e-13
-1.37334e-11
1.48764e-13
-8.4705e-14
-3.33615e-14
1.65444e-11
-2.55797e-13
-1.58248e-11
-1.47907e-13
2.04518e-13
-9.37749e-14
-1.67948e-11
-8.38291e-13
1.66361e-11
3.70341e-13
-4.1586e-13
5.92137e-13
2.95836e-13
-1.47939e-13
-1.80239e-13
-5.65008e-14
2.81701e-13
-2.42233e-14
-8.4291e-14
1.16426e-15
-1.29005e-11
-1.47613e-13
1.27235e-11
2.95928e-13
-5.50371e-14
-3.86369e-13
-7.23966e-14
1.59585e-13
2.83285e-12
-6.90683e-15
-2.80041e-12
2.14659e-13
0
-8.94951e-12
-9.66574e-12
-6.3015e-13
1.00919e-12
-2.94376e-13
-9.08034e-13
2.11293e-13
-6.16031e-14
-8.47421e-14
-3.6957e-13
-7.38528e-14
-1.81912e-14
-3.02937e-13
1.36689e-11
-4.9539e-12
-1.41714e-11
5.01251e-12
4.64468e-13
2.36566e-13
2.2176e-13
-5.17546e-13
-9.48551e-14
-1.16245e-11
-1.87539e-14
-4.00022e-12
-1.31058e-11
1.59434e-11
1.32772e-11