/*--------------------------------*- C++ -*----------------------------------*\
  =========                 |
  \\      /  F ield         | OpenFOAM: The Open Source CFD Toolbox
   \\    /   O peration     | Website:  https://openfoam.org
    \\  /    A nd           | Version:  10
     \\/     M anipulation  |
\*---------------------------------------------------------------------------*/
FoamFile
{
    format      ascii;
    class       volScalarField;
    location    "0.7";
    object      gradTz;
}
// * * * * * * * * * * * * * * * * * * * * * * * * * * * * * * * * * * * * * //

dimensions      [0 -1 0 1 0 0 0];

internalField   nonuniform List<scalar> 
47104
(
5.96396e-13
7.45367e-13
4.46795e-13
-3.71779e-12
1.48558e-13
0
-1.4871e-13
-1.48928e-13
-4.47202e-13
-1.49091e-13
-2.9813e-13
-1.48935e-13
-3.0311e-11
-1.52461e-11
1.03349e-12
-1.47641e-13
1.18415e-12
1.57495e-11
-1.98077e-11
1.75889e-11
-1.59342e-11
2.9715e-13
5.90864e-12
-8.77998e-12
-1.45444e-13
-1.00356e-11
5.85328e-12
1.47714e-13
-2.97142e-13
-1.04238e-12
-1.69516e-11
-8.88062e-13
0
-6.47836e-12
-1.33945e-11
1.39644e-11
-2.87925e-13
1.02429e-12
-1.74648e-11
-1.91812e-11
2.97099e-13
0
7.56287e-12
1.28244e-12
1.40674e-13
-4.78291e-12
-2.99233e-12
0
2.95259e-13
-2.00532e-11
-1.64897e-11
0
-2.03618e-12
1.42493e-13
5.48625e-12
1.40673e-13
5.84214e-12
-1.45438e-13
-3.94177e-11
-1.69341e-11
-1.62097e-11
7.84509e-12
-6.43859e-12
-1.79951e-11
1.72413e-11
5.6996e-13
0
7.4627e-12
-2.32378e-11
1.75466e-11
0
-5.94332e-13
8.27192e-12
5.7066e-12
3.70854e-11
-2.90868e-13
1.46325e-13
-4.43135e-13
1.48576e-13
-7.44609e-13
0
1.7127e-11
1.27768e-11
-7.4e-13
-2.95246e-13
-5.90501e-13
-8.88035e-13
-1.99087e-11
-1.4893e-13
-3.56268e-11
0
-2.98113e-13
-7.44526e-13
-4.4605e-13
1.48533e-13
-8.16948e-12
-1.73969e-11
7.44574e-13
1.6695e-11
-1.49094e-13
5.58629e-13
8.76985e-13
2.2101e-11
1.59673e-11
-1.1265e-13
4.84061e-13
0
0
-5.97376e-13
-3.17536e-13
-1.91505e-14
-2.58115e-12
1.66725e-11
3.92342e-12
-2.79412e-12
-7.36927e-13
-3.06901e-11
-5.85818e-12
1.21572e-11
1.73028e-11
-6.8681e-12
3.85193e-13
-1.28128e-11
-9.19344e-12
0
2.95676e-13
-3.40317e-11
5.94152e-13
-6.70627e-12
-7.46501e-13
-1.67112e-11
6.14964e-12
-4.9227e-11
-2.63504e-12
1.24969e-11
-1.21954e-11
5.82403e-13
3.18189e-11
1.83308e-11
-5.96804e-13
0
2.6385e-12
-1.18314e-12
0
-3.651e-11
-1.72255e-12
-3.11422e-11
-2.93228e-13
-1.26999e-13
2.98318e-13
-4.47528e-13
2.27941e-13
5.91341e-13
5.80729e-13
-4.01927e-11
-8.60039e-13
-7.77604e-12
3.57521e-11
-1.06293e-11
0
4.47698e-13
-3.20979e-11
2.66334e-12
8.73597e-13
-2.36448e-11
2.87999e-13
3.41173e-11
0
-6.77562e-12
-2.98429e-13
1.49339e-13
-6.13385e-12
-8.91228e-13
-5.89227e-13
-1.96458e-11
2.93044e-13
2.93557e-13
2.95743e-13
1.52548e-12
-7.46597e-13
2.98711e-13
-6.77072e-12
-3.57291e-12
-1.56631e-11
-5.38883e-12
1.10151e-11
-4.89995e-12
-1.08799e-11
-7.36921e-12
-1.89667e-11
-1.9143e-14
-1.95807e-11
2.26922e-11
1.4919e-13
-2.6184e-13
1.86623e-11
-9.13406e-13
7.46544e-13
1.69133e-11
3.82396e-14
1.77924e-11
1.33305e-13
2.54259e-12
4.05207e-12
3.62802e-14
-2.44296e-11
-5.47561e-13
4.27984e-12
4.27733e-13
1.94487e-14
-2.29325e-13
2.26773e-11
2.71904e-11
9.57e-12
-3.08741e-11
1.49957e-12
-3.59245e-11
-2.26987e-11
2.71555e-11
-2.04802e-11
1.5129e-11
4.48138e-11
-1.9071e-11
-7.87083e-12
0
-7.01341e-12
3.21739e-11
-1.17996e-11
-3.69424e-11
9.20933e-14
1.62363e-13
2.99028e-13
4.69211e-11
4.06561e-06
2.96726e-06
3.02173e-06
2.73728e-06
2.5869e-07
1.17474e-11
8.12807e-13
-4.10689e-13
0
-1.1872e-11
2.96634e-06
-6.09694e-06
-6.25375e-06
-5.34079e-06
3.17502e-07
3.3887e-11
1.96888e-11
-1.73052e-12
-5.99818e-13
7.92812e-12
3.02157e-06
-6.25372e-06
-6.42245e-06
-5.45641e-06
3.20712e-07
4.90699e-11
1.65777e-11
1.65292e-11
-1.64658e-11
3.03527e-11
2.73759e-06
-5.34091e-06
-5.4565e-06
-4.75502e-06
3.13124e-07
2.53633e-11
-1.73784e-11
1.62657e-11
4.33086e-11
-2.1481e-11
2.58746e-07
3.17577e-07
3.20745e-07
3.13123e-07
-1.59896e-08
8.7185e-12
-3.13855e-13
1.25456e-13
-2.26805e-11
-1.08119e-11
3.46377e-11
1.17995e-11
1.51444e-12
1.23791e-11
9.31935e-12
3.67916e-11
1.67312e-11
1.68665e-13
-7.62399e-13
1.91029e-11
4.5328e-13
1.63946e-11
2.61901e-11
1.72415e-11
-8.02136e-14
2.03163e-11
4.0866e-13
2.97698e-13
-3.43013e-13
-2.16495e-11
-1.63168e-11
1.0816e-13
-6.29508e-13
3.02597e-13
-1.75603e-11
3.51433e-13
0
-1.98714e-11
-4.18882e-11
1.27787e-13
-1.74436e-10
-1.84367e-10
-2.11491e-10
-2.44823e-10
-5.74042e-11
-3.5022e-11
-3.96458e-12
-1.56114e-11
-7.62457e-12
7.2264e-09
-1.177e-05
-1.01959e-05
-1.01086e-05
-1.02836e-05
-1.12459e-05
1.46866e-10
-2.47055e-11
1.75913e-13
-1.61461e-10
-1.17714e-05
-225.026
-293.311
-293.944
-292.42
-0.691322
4.116e-08
-2.34926e-13
1.68241e-13
-1.97677e-10
-1.01951e-05
-293.31
-405.598
-407.089
-403.315
-1.50192
-2.12023e-08
9.43014e-13
2.10036e-13
-2.40519e-10
-1.01092e-05
-293.944
-407.088
-408.661
-404.727
-1.50851
-1.44366e-08
2.71732e-11
-3.32444e-14
-1.89018e-10
-1.02881e-05
-292.42
-403.315
-404.727
-401.124
-1.50131
-3.80069e-08
1.62173e-13
7.34135e-14
-9.00825e-11
-1.1226e-05
-0.691362
-1.50194
-1.50851
-1.50132
-0.197537
5.75247e-08
3.85725e-13
-4.91412e-14
2.96842e-13
6.97691e-11
4.09237e-08
-2.13718e-08
-1.48993e-08
-4.10789e-08
5.77686e-08
-3.60029e-11
-1.18229e-13
-2.97683e-13
1.95383e-11
-2.24198e-11
3.17983e-13
-1.62632e-11
-3.90825e-13
2.62768e-11
-2.49756e-13
2.14042e-11
0
-1.75425e-11
2.77937e-12
-1.89776e-12
1.17797e-13
5.99618e-13
2.45633e-11
3.349e-13
-4.38905e-12
-7.42217e-13
-1.93698e-14
-1.55968e-11
-1.48218e-12
1.59485e-12
1.8741e-09
5.48229e-09
5.40576e-09
5.37032e-09
-8.18503e-11
3.49535e-11
2.07564e-11
2.49947e-13
-3.71006e-11
7.04561e-10
0.00982452
0.0193223
0.0194498
0.0190466
-9.91646e-05
2.55618e-09
1.83417e-11
5.79728e-14
1.86275e-09
0.00980785
9.55346e-06
2.15895e-12
1.6095e-13
5.4427e-09
0.0193191
1.55716e-05
2.17832e-13
1.89598e-11
5.41365e-09
0.0194452
1.57932e-05
1.88317e-12
2.18111e-13
5.07393e-09
0.0188372
1.46175e-05
1.81285e-11
1.69736e-12
-1.20492e-10
-9.84848e-05
-3.97144e-07
-4.07005e-12
1.30605e-11
2.96305e-13
2.50058e-09
9.54259e-06
1.55682e-05
1.57653e-05
1.38948e-05
-3.46558e-07
1.48993e-12
7.6511e-13
1.29189e-13
4.18246e-13
-1.90866e-11
1.92574e-11
-1.6408e-11
2.48233e-13
4.95329e-13
6.17093e-14
-1.50444e-12
0
1.22841e-12
-3.56061e-13
3.54676e-13
3.31218e-13
-7.2587e-14
1.35279e-13
-9.70886e-14
1.80751e-11
-2.76447e-13
-1.29363e-13
1.96217e-11
-2.97265e-13
5.4345e-13
3.40068e-10
1.243e-09
1.22931e-09
1.17443e-09
1.68217e-11
-2.97749e-13
2.19612e-11
-2.96929e-12
8.1702e-13
-2.38333e-09
0.000385189
0.00061069
0.000594504
0.000602753
-2.43881e-06
1.88724e-10
2.50391e-11
-9.33406e-14
3.06524e-10
0.000355089
5.52473e-07
-4.05756e-14
2.93385e-13
1.24119e-09
0.000606372
1.03371e-06
-1.90144e-11
-2.49875e-11
1.27833e-09
0.000595982
1.07874e-06
-2.69578e-11
5.2688e-13
1.21499e-09
0.000965224
9.1732e-07
7.27634e-14
-4.89679e-14
2.2099e-12
0.000263706
-2.90935e-08
2.32822e-11
3.32862e-14
2.97643e-13
3.09617e-10
5.68207e-07
1.03522e-06
1.09473e-06
1.95736e-06
-3.0832e-08
1.502e-12
2.63873e-13
-9.03989e-14
-2.2136e-11
-6.39956e-13
-1.7539e-11
3.54203e-11
1.88022e-11
-2.52122e-11
-4.38114e-12
-2.12796e-11
-1.09867e-13
-6.33856e-13
-3.7043e-11
-3.47058e-13
-1.01571e-13
-2.74641e-13
1.96315e-11
-1.68869e-11
-2.77609e-13
6.79944e-13
7.43833e-13
1.59938e-11
-2.38232e-12
-3.28828e-13
7.19382e-11
3.18911e-10
3.72155e-10
3.4651e-10
-8.77567e-11
3.3114e-11
1.68906e-13
2.9014e-13
-2.04361e-13
-3.08103e-09
0.000165412
0.000209322
0.000174619
0.000224649
-5.27244e-07
3.92575e-11
-1.87335e-11
-4.05586e-13
-2.92454e-11
-5.04176e-05
8.19267e-08
3.28363e-11
-5.50143e-13
2.40194e-10
0.000164402
1.5266e-07
1.23231e-13
2.77974e-13
3.2002e-10
0.000176472
1.62008e-07
-1.29282e-12
-2.14535e-11
3.85657e-10
0.000316191
1.3296e-07
-1.77203e-11
-1.75258e-11
-6.16221e-11
-2.75421e-06
-4.65208e-09
3.49941e-12
-1.30719e-11
-5.96606e-13
1.03857e-11
8.26458e-08
1.53058e-07
1.70661e-07
2.82029e-07
-1.72916e-08
-1.50566e-12
-3.86389e-13
4.07502e-13
2.85174e-13
-1.73457e-11
-1.91221e-11
2.0118e-11
4.12928e-13
4.8246e-13
1.19659e-13
-1.83133e-11
-3.87757e-14
-5.95434e-13
4.72476e-12
-5.2634e-13
1.33493e-14
-6.25199e-12
-5.39506e-13
2.44741e-13
-7.7287e-13
2.26719e-13
0
9.74719e-14
3.87395e-12
-4.30619e-13
-1.75579e-12
8.02214e-11
6.68047e-11
1.10216e-10
3.84437e-11
-6.62977e-11
-1.8314e-11
2.5468e-11
-3.32743e-11
-2.79163e-09
0.000127218
0.000165159
0.000127199
0.000181771
1.30578e-07
4.78508e-11
4.76704e-13
-7.97489e-14
-2.78522e-10
0.00212122
-6.86618e-09
5.38985e-13
1.19966e-14
-2.92783e-13
-2.2795e-05
-1.90327e-08
1.8157e-11
4.22503e-11
8.87742e-11
0.000126451
-2.03633e-08
1.85021e-11
-1.09749e-13
5.29139e-11
0.000186418
-1.77786e-08
-6.86561e-13
-2.27874e-13
4.86166e-11
3.96878e-08
1.06561e-09
-2.28876e-11
1.45175e-13
-6.27124e-12
3.18513e-11
-9.40137e-09
-2.01798e-08
-4.46124e-08
-7.96503e-07
5.06439e-08
-9.03945e-13
-3.73173e-13
-1.48836e-13
2.15685e-11
3.66972e-13
1.84821e-11
-2.54545e-11
-1.8813e-11
-3.2078e-13
4.08703e-12
-5.49745e-13
-5.9548e-13
1.48904e-13
3.40002e-11
1.77217e-13
-2.0609e-11
-6.42608e-14
-1.99355e-11
1.65435e-11
-4.01137e-14
2.31232e-11
-5.9559e-13
-2.33745e-11
-4.65e-11
6.31184e-13
-1.07987e-10
-5.36077e-10
-5.90093e-10
-5.4933e-10
7.72292e-12
3.34522e-11
-4.82559e-13
-2.17653e-11
3.44931e-11
7.66846e-11
7.75531e-05
-4.90086e-05
-9.94461e-05
-1.88525e-05
9.91467e-07
-1.06766e-10
1.68326e-11
-1.78444e-11
1.08679e-10
-0.000808304
-4.9499e-07
4.67488e-12
2.30396e-13
-4.7163e-10
0.000114643
-1.02869e-06
-1.4131e-14
-1.79348e-11
-5.29988e-10
-9.54435e-05
-1.06886e-06
-9.776e-13
2.1642e-11
-4.96404e-10
-1.78992e-05
-8.90439e-07
2.94173e-13
1.70825e-11
2.93812e-11
8.54001e-07
1.81758e-08
3.75428e-12
-2.14416e-13
4.59961e-11
-1.16354e-10
-4.95968e-07
-1.02822e-06
-1.0515e-06
1.68821e-07
-1.56266e-08
0
7.16343e-15
-2.97783e-13
5.47957e-15
2.03943e-11
2.27782e-11
-2.04044e-11
-6.04865e-14
-2.72249e-11
-2.35306e-11
-9.75179e-14
-1.48925e-13
-4.46784e-13
-4.29291e-12
2.90581e-13
1.69878e-11
5.88822e-12
1.62001e-11
1.42054e-13
-4.99237e-13
2.93504e-13
-2.97877e-13
1.36841e-13
4.56064e-11
-1.59593e-12
-8.70426e-11
-3.79793e-10
-2.31754e-10
-5.75217e-10
2.09861e-11
2.98661e-13
-3.57226e-12
1.30328e-13
-2.60201e-13
-4.3298e-09
-0.00624652
-0.0146714
-0.0148379
-0.0143951
4.75948e-05
-4.50513e-10
-2.40467e-13
2.32985e-13
-1.87876e-10
-0.00585541
-6.94275e-06
-4.16613e-13
6.39392e-14
-3.91768e-10
-0.0146191
-1.15718e-05
2.03498e-11
-1.7028e-11
-2.83722e-10
-0.0148468
-1.17636e-05
-1.76878e-11
-1.67375e-11
-6.20907e-10
-0.0143987
-1.07593e-05
-1.99635e-11
1.42189e-13
-1.0112e-11
4.74264e-05
1.77791e-07
-1.96308e-13
-4.89855e-13
-3.94217e-11
-4.51672e-10
-6.94672e-06
-1.15714e-05
-1.17509e-05
-1.06147e-05
1.65111e-07
-3.01167e-13
1.87283e-13
-2.9786e-13
4.9593e-13
-1.58414e-12
2.04338e-11
-9.28852e-12
1.69516e-14
6.62364e-13
4.83944e-13
-3.21996e-14
8.9377e-13
2.47222e-11
1.59388e-11
6.40095e-13
2.04901e-11
1.30285e-12
1.8721e-13
-6.24433e-14
-5.5436e-13
-2.28915e-11
1.48955e-13
4.31181e-11
-5.96154e-13
5.76372e-13
-4.52138e-11
-2.64786e-12
-3.79796e-12
-9.39862e-12
4.1963e-13
1.79128e-12
8.51408e-13
2.16945e-11
-4.21676e-11
-3.0903e-10
4.55191e-05
4.04557e-05
4.01532e-05
4.08046e-05
4.22463e-05
5.38333e-10
-3.48317e-11
1.83771e-11
-8.8064e-13
4.54521e-05
-3.94396e-08
-2.16384e-11
-2.23967e-13
-1.05919e-11
4.05127e-05
-4.76091e-08
1.9844e-14
1.77951e-11
-4.74237e-11
4.01203e-05
-4.74332e-08
4.45017e-13
-5.28888e-13
-3.2309e-12
4.08683e-05
-4.7831e-08
-1.6559e-11
-3.55687e-11
2.99363e-13
4.23412e-05
7.37585e-09
-3.05637e-11
1.56884e-13
-4.50782e-11
5.20033e-10
-3.9439e-08
-4.75738e-08
-4.73864e-08
-4.77459e-08
7.50446e-09
6.02208e-13
-3.01349e-13
-7.44725e-13
-2.04046e-11
-2.94061e-11
-3.89905e-11
-1.52705e-13
-9.6357e-14
2.63034e-11
3.0873e-13
-1.6925e-11
-1.48971e-13
0
-2.04521e-11
1.68987e-11
-1.68282e-11
-1.92769e-11
-1.53501e-11
-1.30574e-11
1.68007e-12
-7.50878e-13
-1.4895e-13
1.14824e-13
-2.98101e-13
7.31815e-11
-2.92924e-13
-5.85873e-13
-7.03665e-12
-5.8512e-13
4.24321e-13
-4.59898e-11
-1.48681e-11
8.41272e-14
4.20687e-11
-1.22628e-12
7.99562e-11
1.17604e-12
-2.35599e-12
5.87198e-13
-5.12687e-11
-3.97292e-13
-2.98656e-11
8.37878e-14
-4.01218e-11
-8.13809e-11
1.76018e-12
-2.70376e-13
2.67707e-11
0
9.81676e-11
-3.88955e-11
-2.0351e-11
-2.26139e-13
0
4.36019e-11
9.84697e-11
-8.44308e-13
4.13434e-11
3.27684e-11
1.5847e-10
1.31539e-11
-2.886e-12
-1.54655e-12
1.13494e-11
1.05962e-10
-1.47941e-12
4.87408e-13
-9.21807e-12
4.54102e-11
-1.19828e-11
2.00103e-12
3.29302e-11
-3.2568e-11
7.1689e-14
1.86229e-12
0
-2.00389e-11
1.48938e-13
1.70156e-13
1.49136e-12
-1.99222e-11
1.67227e-11
6.02171e-14
-5.34719e-13
2.01179e-11
-8.67806e-13
-1.10136e-13
-2.45689e-11
-1.66239e-11
-3.18964e-13
2.5522e-13
-1.55587e-12
-3.52109e-13
1.60535e-11
-1.68997e-11
1.80375e-13
-1.93487e-14
-2.03932e-11
0
-7.11831e-11
2.92849e-12
-5.85626e-13
-2.43248e-11
2.92439e-13
-2.33638e-13
8.03454e-11
-1.04432e-12
4.64956e-13
-5.18843e-13
-1.83876e-12
4.68473e-12
7.24282e-11
5.90812e-13
7.12425e-11
1.97221e-12
-6.00784e-11
1.81008e-11
-1.6016e-11
4.12715e-11
2.59834e-13
4.34437e-13
-2.56169e-11
7.91173e-13
-2.92816e-13
1.82878e-10
-4.20086e-12
-1.89287e-11
-7.04418e-14
-2.93059e-13
2.8356e-11
-4.56361e-11
-1.14466e-12
5.8972e-13
-3.15822e-11
-4.65091e-11
1.05526e-12
1.61966e-11
-4.50523e-12
-1.05738e-11
-2.27455e-13
4.48387e-11
2.66214e-11
8.50348e-14
3.79311e-11
8.8682e-13
3.39092e-13
-3.30402e-11
3.33198e-11
2.44293e-13
-2.26029e-12
1.89673e-13
-2.37163e-11
8.93536e-13
2.04041e-11
5.25784e-11
4.01952e-11
-2.46321e-11
2.11115e-15
-3.02225e-13
2.33747e-11
1.70639e-11
-1.23032e-12
-7.44475e-13
2.09345e-11
-1.71454e-11
3.82622e-14
2.03918e-11
2.87039e-13
1.26898e-11
-2.29202e-13
-1.50549e-11
-7.89333e-12
2.67449e-13
0
-1.1401e-12
3.6597e-11
4.53937e-11
3.195e-11
2.92478e-13
-5.02874e-13
-3.58432e-11
1.83377e-11
1.43895e-13
-4.58625e-11
6.12541e-13
5.4204e-12
-1.45404e-12
-6.44169e-11
-5.88924e-13
-6.8139e-11
6.00432e-11
1.27614e-11
2.21243e-11
5.85467e-13
5.5745e-13
3.93971e-13
-1.23953e-13
-9.99095e-12
0
6.45656e-13
-9.80935e-12
-1.0823e-13
-4.86324e-14
-1.17243e-12
0
3.71511e-11
3.60571e-13
-2.47825e-11
-2.10572e-11
6.47772e-11
2.69344e-12
2.37295e-11
1.28941e-12
-1.37874e-12
7.75772e-11
-7.32188e-12
-7.31991e-13
9.82902e-12
-3.64356e-11
-1.03449e-12
-1.28723e-12
-3.89797e-11
-5.34273e-11
-7.4272e-12
4.81519e-14
-1.20558e-12
2.00798e-11
1.4891e-13
-2.88815e-13
-3.30475e-13
-1.48795e-12
-2.22802e-13
-6.35736e-14
6.57996e-13
-2.05483e-11
6.57213e-13
-2.30844e-11
-2.97787e-13
6.78956e-13
-2.30338e-14
-2.04199e-13
9.8125e-14
-1.94966e-13
-1.56784e-11
1.75718e-11
-1.39758e-13
-1.29578e-13
-3.54247e-13
-5.96202e-13
-3.4415e-13
-4.01271e-11
-4.77297e-11
0
1.90092e-11
-7.98945e-12
5.97323e-13
7.31694e-13
-5.4033e-13
4.64848e-11
6.13985e-13
-1.03606e-13
-5.89841e-13
5.90948e-13
7.06675e-12
-8.21483e-11
2.7444e-13
-4.41436e-13
-2.12947e-12
-3.95186e-11
3.53242e-11
3.6826e-11
5.50811e-12
-5.41109e-13
1.75693e-12
-8.16526e-11
5.28015e-11
1.9228e-11
-2.02192e-14
-4.45455e-11
1.18188e-12
-3.67874e-11
-3.86991e-12
-1.41064e-13
1.95919e-11
0
-4.40519e-11
1.09565e-13
2.14405e-12
5.12309e-13
-4.04166e-12
-1.2045e-11
1.84226e-13
-5.40811e-14
-2.68862e-12
-3.63667e-13
1.05626e-12
-8.32867e-12
5.37648e-11
2.07661e-11
-5.39654e-13
-4.21957e-11
2.33659e-11
-4.4673e-13
-3.6702e-14
-2.59806e-11
-2.34982e-11
7.1271e-12
-1.88019e-11
1.27522e-12
-5.20942e-13
2.18499e-13
-2.2787e-11
7.4452e-13
-7.30244e-14
-1.67561e-13
-1.4242e-13
-1.36345e-13
-2.45237e-13
-2.36247e-13
-3.54977e-13
3.62439e-11
8.04306e-12
-2.01849e-11
1.19218e-12
-3.08144e-13
2.63561e-12
0
0
-1.93008e-11
8.3558e-12
2.98561e-13
4.64691e-13
-3.91139e-12
-1.02027e-12
6.14976e-13
7.67377e-11
8.95724e-11
0
5.88382e-13
-1.22315e-12
2.53324e-12
1.68791e-11
-2.21908e-11
8.9011e-11
1.3839e-12
-3.66576e-11
1.98869e-13
-1.74311e-11
1.17118e-12
5.89295e-13
3.36903e-13
-5.63399e-13
-5.14529e-13
7.97075e-11
7.20225e-11
-8.0447e-14
7.30848e-13
-2.86045e-13
-4.91237e-11
5.29442e-12
4.02611e-11
-1.03414e-13
4.88736e-14
4.1523e-11
-1.01132e-10
2.09502e-11
1.11106e-13
6.50727e-13
1.19453e-12
1.52886e-11
8.51614e-13
4.84789e-11
-2.14658e-12
2.66013e-11
-3.17915e-11
8.8866e-11
1.94663e-13
2.7844e-13
2.15489e-11
1.33536e-13
-1.58078e-11
2.9696e-13
5.94489e-13
-3.20445e-13
1.28749e-11
-1.942e-14
2.29385e-11
4.46798e-13
-2.1672e-13
-4.54987e-13
2.01375e-13
-1.2205e-13
1.41476e-13
1.21013e-13
-6.58452e-12
-1.18123e-13
-5.9783e-12
1.83727e-11
3.48678e-11
-1.49159e-12
-1.46644e-12
5.87719e-13
0
-2.93392e-13
-1.47122e-12
8.95401e-13
-3.33873e-13
3.23675e-14
1.21437e-13
-6.10411e-13
4.81565e-11
-8.80346e-11
-5.91663e-13
-7.61295e-11
-9.29863e-11
-4.02879e-12
5.8806e-13
4.44513e-11
-5.04403e-11
-9.05184e-11
4.75597e-11
2.03591e-11
-5.07936e-13
-1.46921e-12
-2.36333e-12
-3.38126e-11
-3.51705e-14
-6.88371e-13
-3.32338e-11
1.18331e-12
3.85409e-11
3.18302e-11
-5.72305e-13
4.89938e-11
-1.1802e-12
9.47463e-13
-6.37563e-13
1.95236e-11
-4.15083e-11
6.47493e-11
3.21247e-11
-3.02316e-13
1.35287e-13
-5.96863e-13
-1.31677e-11
4.72019e-11
5.60053e-11
-6.69073e-14
-4.01951e-11
3.16392e-11
-4.42322e-11
2.82828e-13
-5.76403e-13
-2.00188e-11
-1.59504e-11
-3.17236e-13
1.6662e-11
1.84027e-11
-6.83173e-13
7.55583e-13
6.06705e-13
2.39863e-11
1.48953e-13
6.05093e-13
7.87012e-13
1.0069e-13
1.23712e-13
4.02259e-13
-1.58567e-11
1.63825e-11
-2.1101e-11
3.17312e-13
4.99507e-11
-3.63768e-11
8.0407e-13
-5.8696e-13
2.93901e-13
-3.61815e-11
2.93462e-13
3.94364e-13
-1.19487e-12
-3.94191e-13
3.79638e-12
-3.81856e-13
-6.13792e-13
-5.35372e-13
6.72536e-11
-1.44724e-12
-6.57555e-11
-1.58567e-11
1.48561e-11
9.1376e-13
1.48074e-13
5.86881e-13
1.55375e-12
-9.51212e-11
1.66598e-13
-5.85036e-14
-1.17554e-12
6.34087e-11
6.81235e-11
3.39421e-13
-1.93633e-11
-3.52978e-12
6.96816e-13
-3.83313e-11
6.61818e-12
-1.97899e-13
5.86907e-13
-3.13394e-12
1.14723e-13
-3.0212e-13
-1.91634e-11
6.2898e-12
-1.66851e-10
5.64246e-13
-2.75719e-11
-7.29296e-13
-2.7184e-11
-1.28964e-11
-8.42641e-11
-1.15801e-11
4.62303e-11
8.97146e-13
2.79986e-13
4.40065e-11
-2.34796e-11
1.48979e-13
-2.1441e-11
-2.46328e-13
-7.88552e-12
-5.37143e-13
1.43767e-14
1.05251e-13
-1.30856e-11
-1.92417e-13
3.36853e-13
-5.95802e-13
2.62257e-13
1.77172e-11
-1.67803e-11
-3.50487e-13
-1.61025e-11
-1.22167e-13
7.02133e-12
5.73687e-14
5.79058e-12
-1.81684e-11
-2.98181e-13
-6.31538e-13
-4.51073e-11
0
3.57564e-11
5.84942e-13
-5.24315e-11
4.27101e-11
1.10599e-12
2.02423e-13
1.09162e-13
6.13609e-13
3.89859e-12
0
-3.53873e-12
-8.64098e-11
1.21254e-12
4.24361e-11
1.74884e-11
-2.62705e-11
3.42655e-11
-9.20364e-13
4.52764e-12
-2.4154e-13
9.11649e-13
0
-1.17751e-12
-3.49842e-11
2.10004e-13
4.11658e-13
3.22381e-12
1.17957e-12
5.22567e-13
-2.69913e-11
-1.945e-11
-5.84914e-13
-6.3484e-11
6.28765e-13
-2.55703e-11
8.25177e-13
-5.52618e-12
-9.88159e-14
-3.62053e-11
-1.60248e-11
1.09329e-13
-8.3629e-12
7.97232e-13
3.58098e-11
-4.46769e-11
-9.26397e-11
-9.24346e-12
-1.13736e-12
-9.94568e-11
-2.50667e-13
2.97938e-13
1.93934e-11
1.60778e-11
2.78729e-13
2.39821e-11
-6.67858e-13
6.8572e-12
2.37225e-11
-2.59612e-13
-3.88352e-14
-1.71309e-11
1.74971e-13
-9.09363e-13
-5.38681e-13
-5.26176e-14
1.88992e-11
1.60497e-11
-1.67041e-11
-1.85726e-13
-1.29651e-13
-5.00015e-11
1.49084e-12
-3.50346e-13
4.45189e-11
0
-3.54633e-11
-3.33396e-11
9.64943e-11
-8.66164e-12
2.63937e-11
-3.44296e-13
1.81665e-12
-2.45416e-12
-1.5112e-13
-4.2586e-13
-3.5453e-12
1.76628e-12
-9.09113e-11
-4.09749e-11
-6.17043e-13
1.88373e-11
-7.93639e-11
1.30699e-12
4.26746e-11
3.50861e-13
7.20857e-13
4.83156e-11
-3.58676e-12
9.66681e-13
8.13125e-14
1.98131e-11
-8.79206e-13
-6.26331e-11
-5.06511e-13
9.11768e-12
8.99938e-14
4.70806e-11
5.88729e-13
9.41628e-14
1.59856e-13
1.93625e-11
-1.56317e-13
-8.78088e-11
7.81543e-11
4.94355e-11
-5.07014e-14
3.55463e-11
-3.75946e-12
6.77573e-13
4.69739e-11
4.63096e-11
-3.96078e-11
1.73831e-12
5.54643e-11
5.46322e-11
0
-1.13403e-13
-6.20182e-12
2.4407e-11
1.57034e-11
3.606e-14
-2.43878e-13
2.71484e-13
-1.80989e-11
0
2.98043e-13
6.90634e-12
-1.75562e-11
1.63078e-11
2.35297e-13
1.56627e-11
1.2865e-13
1.99766e-15
1.66948e-13
-1.95223e-11
3.96813e-13
-2.9821e-13
-3.21376e-13
2.92764e-13
-2.92877e-13
3.66391e-11
3.36338e-11
-4.50182e-11
-3.31541e-11
-8.40032e-13
1.73047e-11
-1.15472e-12
0
1.65992e-12
1.59967e-10
5.90946e-13
-5.88847e-13
-2.15459e-12
1.6595e-12
-1.77825e-11
5.32403e-14
4.62516e-11
-1.72087e-12
-4.77422e-13
-8.47417e-14
2.36431e-11
-4.53917e-11
-7.97366e-13
-1.43008e-12
2.16913e-11
-1.24315e-13
2.93096e-13
2.36375e-12
4.11938e-11
-1.08512e-12
-4.39726e-12
-4.67912e-11
9.12604e-11
1.28364e-12
6.57743e-12
-7.33248e-14
4.15985e-11
9.04089e-11
-4.22988e-11
1.91056e-11
9.84481e-13
0
3.98692e-11
-7.29286e-13
-4.67161e-11
-2.00847e-12
4.78336e-11
-1.81598e-12
6.02849e-13
3.59339e-11
1.49017e-13
4.50372e-13
-1.64877e-11
-7.79565e-13
-2.32064e-11
8.22366e-13
-6.56425e-12
-2.3009e-11
-6.10676e-14
6.35138e-13
1.67031e-11
-6.45563e-13
-1.25274e-13
2.84032e-13
-1.88132e-13
-1.90303e-11
1.87796e-13
4.16604e-14
-1.46395e-13
-2.37313e-11
1.9908e-11
-3.31131e-11
4.08606e-11
-2.92751e-13
-3.51423e-11
-1.17229e-12
5.84882e-13
-6.273e-13
-2.98835e-13
-4.73032e-11
2.33552e-14
2.45011e-13
-6.13689e-13
7.82157e-11
1.50026e-13
-5.90698e-13
1.76573e-12
-1.29496e-12
-1.12684e-12
-3.64655e-14
-3.4151e-11
0
-1.49581e-10
-3.16589e-13
-6.49107e-13
-1.60655e-12
3.16241e-11
9.02121e-11
-7.85902e-12
-3.96651e-14
1.15325e-13
0
8.15153e-11
-4.13082e-11
-1.56323e-11
9.63666e-14
0
1.76569e-12
-6.03922e-13
7.07476e-13
4.64504e-13
-4.17139e-11
-1.45763e-13
4.99511e-13
-2.2202e-11
-1.82323e-11
-2.98826e-13
-1.56624e-11
-9.16254e-14
3.31633e-11
-4.49709e-11
-4.32583e-11
-8.13404e-13
-3.31464e-12
-3.171e-11
1.57872e-11
3.56556e-13
6.05177e-12
1.8815e-11
-1.5178e-11
8.49887e-16
-3.12588e-13
2.2672e-13
3.76818e-11
1.10182e-13
0
-7.25824e-12
1.71829e-11
9.29972e-13
1.37105e-13
3.4306e-15
-2.28062e-11
-4.35885e-13
1.79562e-13
1.92736e-11
3.7932e-14
4.56807e-11
-4.07102e-11
4.07767e-11
3.55284e-11
-5.87659e-13
-5.86412e-13
9.46841e-13
-2.98995e-13
-2.05782e-13
-1.72473e-11
9.17246e-14
3.06436e-12
1.04304e-10
-5.87545e-13
8.88522e-11
8.85749e-11
6.58188e-11
-2.39139e-11
1.66326e-11
-1.65204e-11
-8.80193e-13
-6.40298e-11
-5.30373e-11
3.87008e-13
-2.43333e-11
-7.16374e-11
7.16737e-11
7.37546e-12
-2.172e-11
-2.93077e-11
5.87665e-13
-1.17684e-12
-5.04428e-11
1.94238e-11
2.46205e-11
8.20998e-12
2.63965e-11
-3.44579e-13
1.97664e-11
-9.52049e-13
-3.59904e-13
1.3452e-13
2.62097e-13
-3.31502e-12
-2.26688e-11
2.98972e-13
2.61372e-11
5.35914e-11
-3.3451e-11
4.74299e-11
4.39428e-11
5.06026e-11
3.94616e-11
-5.57857e-11
1.68698e-13
3.62651e-13
-1.44242e-12
-3.39996e-13
1.02901e-14
-1.3843e-13
2.3386e-13
-7.2073e-13
9.7032e-13
-7.46461e-13
-1.64149e-11
-3.09204e-11
-2.3617e-11
-8.24972e-14
-2.19607e-13
1.27542e-13
6.60257e-13
2.02765e-11
2.57274e-13
2.41721e-11
-1.5309e-14
-1.374e-11
-4.42213e-11
-3.91931e-11
3.3046e-11
8.93643e-13
8.91953e-13
-5.94261e-13
1.49546e-12
4.59181e-12
-9.22876e-15
-3.34175e-13
1.22409e-12
-7.98482e-11
-1.27993e-11
7.2305e-11
7.39031e-11
-1.88061e-10
2.15667e-11
1.67572e-11
1.56056e-11
5.93939e-13
-2.53803e-11
5.30796e-11
-5.77474e-13
1.66749e-12
3.57278e-11
7.62584e-11
3.00609e-13
2.14876e-11
5.01563e-13
0
9.39376e-11
9.62745e-12
2.45823e-13
5.08004e-13
-7.43422e-12
5.51699e-13
-4.97699e-11
-1.59224e-14
1.91639e-12
-1.18867e-12
-1.0476e-10
2.71384e-13
1.84765e-12
1.76574e-11
5.98091e-13
-6.79026e-11
-5.39438e-11
-4.76346e-11
4.69372e-11
1.28925e-11
-1.6947e-11
-3.67784e-11
-1.67115e-13
-1.64106e-11
-1.45435e-13
1.45376e-13
-1.94796e-11
1.63868e-11
-4.3995e-13
1.67625e-11
-5.60818e-13
-1.96745e-11
0
1.48886e-13
8.10574e-14
-2.12589e-11
2.73435e-14
-4.44862e-12
-2.18244e-11
2.25495e-11
2.21409e-11
1.67638e-11
1.93335e-11
9.35273e-13
-3.60144e-11
1.01257e-10
-1.0158e-12
-3.35186e-11
3.11597e-11
-1.18587e-12
-6.81739e-12
-3.92606e-11
-2.07337e-11
4.35373e-14
5.94406e-13
1.43985e-11
-1.17873e-12
-4.13644e-12
-5.91079e-13
1.26988e-13
-9.87834e-11
2.93656e-12
-1.67521e-11
1.69518e-11
-4.40505e-13
-2.6482e-13
7.96255e-13
4.50146e-13
-1.25106e-11
-1.94874e-11
5.71361e-13
-4.18213e-13
-1.98532e-11
2.98247e-13
1.61996e-12
-5.91114e-13
-1.11599e-11
3.89523e-11
-1.19302e-11
2.07559e-12
0
-7.41366e-12
1.69535e-13
8.28935e-12
-1.45441e-11
-1.33044e-11
-1.01813e-12
-5.316e-13
1.12227e-11
-2.164e-12
5.81331e-13
4.20367e-11
-1.94609e-11
6.65145e-13
-5.93058e-13
-6.16934e-11
4.58819e-11
-4.52934e-11
2.67405e-11
-2.30087e-11
5.76854e-13
4.917e-11
-2.33446e-13
2.0763e-11
5.92908e-13
1.70541e-11
3.42397e-12
-1.08165e-10
-1.16408e-12
2.32662e-12
7.83598e-11
-2.12813e-13
1.01065e-12
2.23299e-11
1.48713e-12
6.0018e-11
1.14018e-13
4.68031e-11
-4.62727e-11
-1.36274e-11
-3.5486e-11
0
2.08316e-11
-2.13042e-11
2.88673e-14
1.40173e-11
-1.25549e-13
1.93088e-11
6.63178e-14
3.84426e-13
-1.38255e-12
-2.2994e-11
2.0843e-12
1.7965e-11
3.13074e-11
2.37072e-11
-3.70046e-12
-1.0085e-13
1.47987e-13
-5.92067e-13
-2.02355e-11
9.09254e-13
1.05807e-12
0
6.73768e-12
-2.64717e-11
9.48675e-14
-5.90751e-13
1.84277e-12
-4.51074e-12
6.79785e-12
-8.5644e-12
1.66158e-11
6.37132e-12
3.08344e-13
-2.94682e-13
-3.82933e-11
0
-8.56801e-13
-2.93793e-13
0
1.49999e-13
-1.67406e-11
-1.77619e-11
1.00771e-11
2.93731e-13
2.93544e-13
-4.24986e-11
4.41104e-11
3.386e-11
-1.46492e-12
5.26838e-13
4.43986e-13
-1.4798e-13
-2.37644e-11
2.92015e-13
1.10552e-11
-5.41475e-12
1.13013e-13
-4.16629e-12
1.91183e-13
-1.45249e-11
-2.11588e-11
-2.95962e-13
2.85002e-12
3.79734e-11
7.65358e-12
5.75673e-12
-1.16164e-11
-1.92331e-12
1.37216e-12
1.47359e-11
1.47966e-13
-4.44056e-13
3.20507e-12
5.08685e-11
-1.3282e-11
4.31415e-11
0
-9.45439e-13
-8.24179e-13
3.7976e-13
-4.44021e-13
1.52407e-11
2.95586e-13
3.37044e-11
-5.86546e-13
2.52055e-13
-2.97058e-13
7.61692e-11
-4.80587e-11
-2.94933e-13
-1.55552e-12
-2.96747e-13
-1.06355e-11
-8.8635e-13
2.41397e-11
2.94883e-13
-2.08642e-11
3.75772e-11
-7.06254e-12
-8.09455e-12
4.45155e-13
3.15774e-13
-1.29392e-13
-3.48886e-13
0
-1.63855e-11
5.919e-13
-1.61318e-11
1.48151e-13
-2.96721e-13
2.96927e-13
-1.48202e-13
2.96244e-13
1.98335e-11
1.47935e-13
4.88148e-12
2.15958e-11
0
-3.95222e-11
-1.76265e-11
-1.98583e-11
-1.18496e-12
-2.07171e-11
2.30593e-11
1.63986e-11
-1.37751e-11
-2.0539e-11
2.98423e-11
7.46216e-12
2.90033e-11
2.04395e-11
-1.65767e-11
0
-7.33985e-12
-8.15054e-12
1.47659e-13
9.00755e-12
-4.42581e-13
-9.1102e-12
-1.59626e-11
0
-1.65674e-11
-2.95463e-13
-2.02816e-12
-1.49538e-11
-1.66539e-11
-1.57657e-11
-4.65372e-12
-2.66301e-11
-1.47739e-13
1.98212e-11
5.91588e-13
-1.68423e-11
-1.24307e-11
0
2.22496e-11
2.95155e-11
6.80967e-12
6.49765e-12
-4.43309e-13
1.1832e-12
2.12971e-11
-1.47734e-13
-1.35355e-11
-2.18842e-11
-1.67625e-11
7.41631e-13
-4.77407e-12
-3.8025e-12
-1.93579e-11
2.95807e-13
2.9585e-13
-4.43121e-11
-1.92384e-11
2.65686e-11
8.40395e-12
-2.23932e-11
-1.15607e-11
1.29822e-11
-1.75797e-11
0
-2.01299e-11
5.65167e-12
5.7157e-12
-7.22573e-12
-5.0946e-12
-2.21514e-12
-8.18842e-12
7.92998e-12
-4.02656e-12
1.76143e-11
2.96229e-13
-2.19004e-11
-1.44799e-11
-1.65436e-11
2.27861e-11
2.17208e-11
0
2.29096e-11
2.48601e-11
-4.44366e-13
2.11908e-11
0
2.66411e-12
-1.47926e-13
-1.9229e-11
-1.86362e-11
-8.87535e-13
-1.99433e-11
4.87673e-11
-2.07477e-12
1.56935e-11
-5.9202e-13
1.47947e-13
4.28929e-12
-7.39478e-13
-1.47896e-13
1.4791e-13
-5.91807e-13
-5.92028e-13
-1.33246e-12
-2.16084e-11
-2.29301e-11
7.39324e-13
4.43494e-13
0
-1.99582e-11
1.47835e-13
1.47871e-13
1.70129e-11
0
-2.36704e-11
-1.84825e-11
-2.95575e-13
-1.53692e-11
-1.5965e-11
-3.81393e-11
1.47788e-13
3.81306e-11
1.47862e-13
0
1.65641e-11
-1.71468e-11
-1.47768e-13
3.69551e-12
4.43772e-13
-2.52958e-11
0
2.95578e-13
-1.47829e-13
1.03529e-12
-2.12941e-11
2.4241e-11
-5.9116e-13
-2.95797e-13
-2.22081e-11
2.96117e-13
-1.4793e-13
-1.78873e-11
3.84366e-11
4.43658e-12
-1.47875e-13
2.03975e-11
2.11333e-11
2.95791e-13
1.48054e-13
0
1.55327e-11
-4.43485e-13
0
1.61198e-11
1.47893e-13
1.4781e-13
4.4029e-11
-1.47804e-13
0
-1.47931e-13
-1.67061e-11
-1.47787e-13
2.14356e-11
0
-1.71609e-11
-1.47854e-13
1.47768e-13
0
-2.24688e-11
-1.33045e-12
2.52721e-11
-7.38965e-13
-7.39345e-13
-5.91795e-13
0
1.47931e-13
-5.91425e-13
-1.89213e-11
-1.47833e-13
1.47834e-13
-2.64616e-11
-4.43589e-13
-1.73088e-11
-4.44018e-13
0
4.4399e-13
4.43817e-13
1.47899e-13
-1.47888e-13
1.29569e-13
3.23532e-12
-3.71919e-14
1.11035e-13
2.96102e-13
1.28734e-11
5.91782e-13
-1.62708e-11
1.47896e-13
1.331e-12
-5.91561e-13
0
1.74546e-11
8.87693e-13
1.47972e-13
-1.47943e-13
1.47914e-13
7.39417e-13
-1.64135e-11
1.81882e-11
-6.95003e-12
-7.54157e-12
-4.43667e-13
-4.43754e-13
0
1.70096e-11
-1.03515e-12
2.95708e-13
-1.65599e-11
-4.43625e-13
-2.11465e-11
-1.74478e-11
1.58212e-11
1.56759e-11
2.95828e-13
1.67109e-11
7.39291e-13
-2.95695e-13
2.1442e-11
1.61231e-11
4.14183e-12
4.58454e-12
2.12922e-11
-7.3935e-13
-7.39462e-13
-7.39363e-13
1.68552e-11
1.77427e-11
2.95813e-13
-4.14311e-11
-2.95947e-11
4.43772e-13
5.91512e-13
-1.4787e-13
-1.47885e-12
1.47872e-13
0
-2.95707e-13
4.43713e-13
0
-1.03582e-12
-2.95848e-13
-1.77454e-11
0
2.21829e-11
-1.47882e-13
2.2326e-11
1.71494e-11
1.47869e-13
2.39624e-11
2.23363e-11
4.45144e-11
-5.9145e-13
1.77446e-11
2.95791e-13
1.47907e-13
0
-2.95691e-13
2.09944e-11
-5.91484e-13
-2.36601e-11
-1.47862e-13
0
0
-1.74543e-11
-1.47939e-13
2.20384e-11
2.0407e-11
5.91452e-13
-2.32151e-11
-1.62656e-12
-5.9148e-13
1.47885e-13
-7.39588e-13
-3.69869e-12
1.47964e-13
0
1.4791e-12
-1.47889e-13
0
1.85039e-11
1.34941e-12
2.11518e-11
-2.66302e-11
-2.95943e-13
-4.43766e-12
1.03536e-12
1.47892e-13
-2.95763e-13
2.21818e-12
2.9576e-13
-2.9577e-13
5.91586e-13
0
1.47926e-13
2.21858e-11
2.32191e-11
-8.87275e-13
-7.39376e-13
1.8189e-11
1.31613e-11
-8.87279e-13
1.47885e-13
-1.70083e-11
2.95821e-13
1.67111e-11
1.75971e-11
-4.43609e-13
-1.03514e-12
1.59722e-11
-5.76784e-12
-1.77461e-11
-2.17381e-11
-4.4365e-13
2.95786e-13
2.07019e-12
4.43596e-13
-2.95742e-13
-1.47895e-13
2.30757e-11
2.49993e-11
1.47905e-13
-2.95768e-13
-8.87265e-13
-7.39405e-13
2.12923e-11
-4.43588e-13
7.39387e-13
2.95827e-13
1.77539e-12
-2.95908e-13
4.43779e-13
1.80431e-11
-1.62666e-11
-4.28842e-12
0
-2.08485e-11