/*--------------------------------*- C++ -*----------------------------------*\
  =========                 |
  \\      /  F ield         | OpenFOAM: The Open Source CFD Toolbox
   \\    /   O peration     | Website:  https://openfoam.org
    \\  /    A nd           | Version:  10
     \\/     M anipulation  |
\*---------------------------------------------------------------------------*/
FoamFile
{
    format      ascii;
    class       volScalarField;
    location    "0.7";
    object      gradTy;
}
// * * * * * * * * * * * * * * * * * * * * * * * * * * * * * * * * * * * * * //

dimensions      [0 -1 0 1 0 0 0];

internalField   nonuniform List<scalar> 
47104
(
4.37803e-13
4.37779e-13
2.88613e-13
-9.20384e-15
-4.45675e-13
2.97116e-13
1.73899e-11
3.07238e-13
-2.88822e-13
-1.34277e-11
6.04907e-13
4.36832e-13
6.66739e-13
5.03175e-12
-2.60679e-13
-5.6433e-13
-1.57076e-14
-1.5407e-13
1.24286e-13
4.57195e-13
1.20594e-11
6.87992e-13
3.37848e-14
2.0725e-13
5.22688e-13
3.63804e-14
-1.76619e-11
-1.04742e-12
-4.27947e-14
1.33171e-11
3.45365e-15
3.07703e-13
-9.81717e-14
-4.94565e-12
3.17829e-13
5.12429e-13
4.8656e-14
1.4987e-13
-2.9674e-13
-4.09372e-13
-1.2366e-11
-7.02995e-13
1.0778e-12
-1.17306e-13
1.16798e-12
1.18281e-13
4.38218e-12
3.83547e-13
1.32999e-11
-3.61273e-13
-3.63265e-13
1.1991e-11
-3.46931e-13
2.46253e-15
-1.2178e-13
-2.94533e-13
-1.36369e-14
1.27164e-13
2.72957e-12
1.25552e-13
9.02106e-14
4.83536e-13
-8.19927e-13
-4.29722e-13
-1.8333e-11
2.44905e-14
-4.53008e-12
-8.25708e-14
-1.34535e-11
5.19464e-13
1.98883e-13
-1.1917e-11
-3.38073e-14
8.04589e-13
3.20293e-14
2.51101e-13
-1.00785e-13
1.39014e-11
-2.90841e-12
1.42552e-11
-2.16963e-14
-2.48276e-13
3.93459e-13
1.60857e-13
1.79515e-11
-1.32251e-11
-1.58003e-14
-7.26334e-13
-1.24338e-11
-7.17937e-13
9.51284e-15
1.39735e-13
4.37336e-13
-7.34223e-13
1.48533e-13
-1.35168e-11
1.57886e-13
-1.43052e-11
-1.25305e-11
-1.40053e-11
-8.91003e-14
0
-2.2101e-11
-8.50593e-12
1.49178e-13
-1.49177e-13
1.8504e-11
1.20955e-11
-1.44864e-11
6.01163e-14
-1.16648e-11
-8.57388e-14
1.22713e-11
6.87942e-12
3.92639e-12
-4.37511e-12
-5.72035e-12
-4.00307e-12
2.77628e-15
-4.41381e-13
-1.97933e-13
-1.14037e-13
2.11805e-11
1.52776e-11
-4.89917e-13
-2.49477e-13
-2.35679e-11
-1.63601e-11
1.66257e-12
-1.38072e-11
1.2083e-11
6.79514e-14
-6.95034e-15
-2.8409e-11
1.28965e-12
3.67587e-11
-9.10005e-15
-2.25568e-13
2.01797e-14
-1.46666e-11
-1.21937e-11
-1.07113e-13
3.27883e-11
2.92665e-11
-9.85967e-13
-3.6528e-11
8.01984e-13
2.29084e-13
-2.99026e-12
1.45277e-12
-1.24878e-11
1.74891e-11
-3.19468e-11
-1.0435e-13
8.33236e-13
4.53536e-14
-5.98503e-13
-4.36141e-13
-1.42051e-11
2.76234e-11
1.23022e-11
-1.58765e-13
-2.66912e-11
-2.43743e-11
2.64021e-11
2.24999e-13
4.4273e-13
3.07323e-13
1.59195e-11
1.23793e-11
1.24392e-11
-4.64226e-12
2.64375e-11
2.40938e-11
-2.79385e-11
-1.06228e-12
1.8806e-13
-6.00728e-14
1.41136e-11
-2.54389e-11
-1.89758e-13
-3.53031e-13
3.02993e-12
-9.34551e-12
-1.12168e-13
-1.57413e-11
-1.74584e-11
-3.36682e-13
-7.52527e-14
-8.37144e-14
0
-1.26926e-11
-9.7039e-12
-2.9838e-13
4.47445e-13
-1.92408e-11
-1.25331e-11
1.19447e-12
2.98674e-13
1.20861e-11
2.09334e-13
6.86694e-12
-1.7002e-11
-1.71355e-11
-7.00465e-12
-4.47107e-13
1.04303e-12
-1.49134e-13
6.11998e-12
6.01426e-14
-4.93189e-12
-3.8525e-11
-3.19688e-11
-2.40909e-11
3.8821e-12
6.45519e-13
-1.93597e-12
-3.44167e-13
1.74851e-13
1.25756e-13
-2.30281e-13
2.40075e-11
-8.55817e-12
1.62809e-10
2.89904e-10
2.97588e-10
2.9492e-10
-2.23181e-11
-1.94755e-13
-2.43665e-13
5.2176e-12
-9.3534e-13
7.79495e-12
-1.89605e-07
-2.45094e-07
-2.51173e-07
-2.14132e-07
-6.67334e-09
-3.01214e-13
-5.73926e-14
-2.64721e-13
5.93017e-13
-3.07536e-11
-1.36828e-08
4.38354e-08
4.65046e-08
3.5053e-08
-1.29814e-09
-3.72294e-14
3.62899e-15
-3.31658e-14
2.38697e-13
3.11937e-11
3.13903e-09
-9.8606e-09
-1.05696e-08
-7.82359e-09
3.12807e-10
2.66961e-13
6.8981e-14
4.6866e-13
-1.45479e-12
3.31034e-12
4.0083e-08
-1.2336e-07
-1.29084e-07
-1.02048e-07
3.65361e-09
-4.354e-11
-2.97838e-13
-6.01674e-14
1.45505e-12
-2.9333e-12
1.65482e-08
2.57135e-08
2.63374e-08
2.41199e-08
-7.8185e-10
7.4644e-11
1.67203e-13
4.36654e-14
-2.98428e-13
1.03239e-13
-2.68124e-11
-2.53209e-13
-3.40897e-13
3.71513e-14
3.15561e-11
-3.05732e-11
2.00586e-13
1.49184e-13
-1.55204e-11
1.84863e-11
-9.38447e-12
9.38731e-12
-5.21542e-12
-8.93881e-13
1.31219e-11
4.47776e-12
-2.98375e-13
-1.35453e-11
-2.97288e-13
-4.42999e-13
-1.37907e-11
-1.02552e-11
2.84217e-11
-7.18896e-12
-4.28183e-12
-8.61958e-12
-1.54776e-11
-1.34824e-11
-1.56083e-13
-2.79976e-12
9.88225e-09
9.35522e-09
9.31422e-09
9.55721e-09
6.85511e-09
-2.50712e-11
-1.74568e-13
9.48661e-14
-2.9601e-13
-3.57047e-09
5.77048e-05
5.96989e-05
6.00971e-05
5.93732e-05
5.92697e-05
7.10408e-09
2.10021e-12
4.92427e-13
-4.97018e-11
-2.33906e-07
-0.900311
-1.39066
-1.39787
-1.3801
0.165577
1.9212e-08
2.8363e-14
-1.39297e-11
-1.19798e-11
-5.77934e-10
-0.00601183
-0.020357
-0.0212204
-0.0193434
-0.0116194
7.82946e-10
1.33886e-11
-2.09321e-13
4.99819e-12
1.46466e-09
0.000380194
0.00120774
0.00126761
0.00113937
-0.0128327
-1.76996e-10
1.11586e-13
2.62723e-11
2.64486e-11
1.09437e-08
0.0162065
0.0577091
0.0592554
0.0555359
-0.0137562
-3.55776e-09
-2.57872e-15
-1.07452e-13
4.75202e-11
5.92207e-07
0.73497
0.947705
0.951208
0.940644
-0.174402
-3.17654e-08
-1.61355e-13
-1.21704e-11
2.64375e-13
9.68018e-08
2.99645e-06
2.67237e-06
2.65708e-06
2.73167e-06
1.64208e-06
3.67515e-12
3.28776e-14
-1.48842e-13
-5.94368e-13
2.34704e-11
1.40806e-11
1.96282e-11
8.64279e-12
8.6553e-12
-1.47648e-13
2.05099e-11
2.977e-13
-1.51639e-11
4.45245e-13
-6.02485e-12
-3.44018e-11
-4.36616e-11
-4.09166e-11
-2.29399e-11
6.02524e-12
-4.45151e-13
-2.82407e-12
-1.77453e-11
6.51133e-13
-4.07353e-10
-1.48021e-07
-3.15268e-07
-3.03377e-07
-3.39718e-07
1.06321e-08
-6.74007e-14
-1.87041e-11
1.49257e-11
3.24584e-12
-1.9338e-06
-0.828955
-1.00669
-1.00858
-1.00409
0.0162649
2.91806e-08
2.7513e-12
1.71876e-11
1.98123e-09
0.0226861
1.23931e-05
1.92218e-11
-3.79079e-14
8.7801e-10
0.000599147
9.13109e-07
1.98782e-11
8.33112e-14
-1.68906e-10
0.000134404
-1.52402e-07
-6.58593e-13
-2.25486e-13
-2.18678e-09
-0.00109922
-3.96144e-06
-2.01845e-11
2.23654e-13
3.13528e-10
0.00105305
2.03195e-06
2.37634e-13
-2.51444e-13
-2.75707e-11
6.67365e-07
0.000704087
0.000893193
0.000895129
0.000885567
-5.21301e-05
4.25379e-10
4.86618e-14
-1.4865e-13
4.74745e-12
4.40706e-13
2.69939e-11
2.8044e-11
4.17814e-11
6.25724e-11
-1.14624e-11
2.13697e-11
-1.48668e-13
-1.20452e-11
-1.4856e-12
0
-2.19005e-11
-4.24325e-11
-5.13855e-11
-3.13417e-11
1.52992e-11
1.03987e-11
0
-2.89538e-13
3.93019e-12
-4.63054e-10
-1.13373e-07
-3.3413e-07
-3.18885e-07
-3.65064e-07
1.17455e-08
-7.98689e-12
1.38474e-11
1.20878e-11
6.23463e-12
-2.07211e-06
-0.852654
-1.05093
-1.05357
-1.04718
0.0173942
3.0823e-08
-1.18929e-11
1.61611e-13
1.8732e-09
0.0283295
1.45633e-05
-1.3719e-11
2.0205e-13
1.17611e-09
0.000766185
1.27452e-06
1.32432e-11
-2.5431e-13
-1.81055e-10
9.62577e-05
-2.08074e-07
1.31228e-11
1.2933e-11
-2.94928e-09
-0.00291753
-5.22702e-06
-4.09146e-12
9.68668e-12
1.48371e-10
-0.00118458
2.28862e-06
-1.30448e-11
-1.35489e-11
4.86286e-13
6.92287e-07
0.000723243
0.000977762
0.000980877
0.000948573
-2.15218e-05
5.16928e-10
3.14331e-12
-9.66437e-12
0
-5.88023e-13
4.35042e-11
4.51693e-11
4.25763e-11
2.82876e-11
6.91171e-12
2.85213e-11
-2.9742e-13
-1.04154e-12
-6.09624e-12
2.06043e-12
-2.06079e-11
-3.95642e-11
-3.5669e-11
-2.65702e-11
-4.85868e-12
4.31182e-12
1.35378e-11
-2.03682e-11
-7.41145e-12
-5.22223e-10
-9.96714e-08
-3.16531e-07
-3.00352e-07
-3.50136e-07
1.17941e-08
5.85578e-14
-6.82229e-14
-2.82881e-13
3.30303e-11
-2.07197e-06
-0.853751
-1.05293
-1.05569
-1.04909
0.0174112
3.09074e-08
-1.38748e-11
1.92535e-11
1.69036e-09
0.0283381
1.47309e-05
-1.36519e-11
-1.83886e-11
1.28054e-09
0.000786242
1.32454e-06
1.62075e-13
2.32421e-13
-1.76981e-10
7.55888e-05
-2.16902e-07
1.34953e-11
1.85599e-11
-3.04608e-09
-0.00152617
-5.32666e-06
1.76002e-11
-2.49494e-13
2.20006e-10
0.00114882
2.29583e-06
-2.91342e-13
-1.55887e-13
-3.14928e-11
6.93554e-07
0.000724931
0.000981441
0.000984834
0.000965715
-5.62634e-05
5.17054e-10
-1.75271e-11
1.48765e-13
-1.64975e-11
1.29479e-11
1.18986e-11
5.5585e-11
5.5156e-11
2.40925e-11
-9.12474e-12
5.35244e-12
-1.48797e-13
0
2.79679e-11
-4.27055e-12
-2.97703e-11
-4.71054e-11
-6.86414e-11
5.81137e-13
1.47321e-13
-4.31422e-12
-5.9536e-13
7.45202e-14
3.46652e-11
-4.90845e-10
-9.80746e-08
-3.15484e-07
-2.99274e-07
-3.49402e-07
1.18041e-08
2.90152e-12
-5.42006e-13
-3.58765e-13
4.16713e-12
-2.01868e-06
-0.853757
-1.05311
-1.05588
-1.04925
0.0174116
3.07323e-08
1.27116e-11
-5.88893e-14
3.86918e-09
-0.00321449
1.47378e-05
3.72227e-13
7.01874e-13
1.43095e-09
0.00125673
1.3257e-06
-1.25453e-11
-1.57215e-11
-1.41118e-10
8.20175e-05
-2.1713e-07
-1.32206e-13
2.51989e-13
-3.04245e-09
-0.00148305
-5.33298e-06
-3.10275e-13
1.61159e-11
2.33036e-10
0.00115015
2.29699e-06
2.06238e-13
-6.01606e-14
-2.55584e-11
6.9026e-07
0.000725246
0.000981794
0.00098514
0.000963638
-5.5678e-05
4.89069e-10
1.34943e-13
1.48836e-13
9.66584e-12
-1.79609e-11
3.36859e-11
5.66351e-11
4.79716e-11
3.96524e-11
1.47271e-13
5.95054e-12
1.4887e-13
-4.46712e-13
-9.52446e-12
-4.42072e-12
-2.55898e-11
-3.21275e-11
-4.73262e-11
-3.63621e-11
-8.84432e-12
4.31581e-12
-2.97795e-13
-5.79614e-13
-3.90167e-12
-4.8923e-10
-1.07238e-07
-3.28058e-07
-3.12681e-07
-3.59828e-07
1.17889e-08
-4.82913e-13
-2.56872e-13
5.29646e-14
-1.0032e-12
-2.00078e-06
-0.853463
-1.05232
-1.05503
-1.04851
0.0174171
3.06833e-08
3.28025e-14
3.39357e-13
4.36755e-09
-0.00527566
1.45869e-05
5.93428e-14
1.31108e-11
1.42273e-09
0.00120665
1.27725e-06
1.34318e-11
-3.98453e-13
-1.7577e-10
9.37945e-05
-2.07377e-07
-8.36288e-13
-1.3521e-11
-2.98597e-09
-0.0014573
-5.2257e-06
-1.35518e-11
2.8785e-13
1.91322e-10
0.0011478
2.29515e-06
7.12746e-13
6.97255e-14
4.49978e-11
6.86401e-07
0.000725045
0.000979492
0.000982629
0.000950806
-2.15116e-05
5.13332e-10
-4.85014e-13
1.48892e-13
-4.61159e-12
-4.27205e-12
3.25628e-11
3.42939e-11
4.10991e-11
3.25737e-11
4.86298e-12
0
-7.44626e-13
-1.78714e-11
3.72134e-12
5.89948e-13
2.22971e-11
-3.04834e-12
-7.25815e-13
1.60331e-12
-5.31028e-12
-2.50085e-11
1.48938e-13
-1.64243e-11
6.848e-13
-4.74424e-10
-2.76546e-08
-5.46095e-08
-4.07187e-08
-9.38799e-08
9.78612e-09
-5.66842e-11
1.26346e-11
3.46745e-12
4.46432e-12
-2.05104e-06
-0.839711
-1.02207
-1.02417
-1.01915
0.0165472
2.73919e-08
1.63693e-11
1.6199e-11
5.77444e-10
0.0239711
1.0367e-05
-1.24324e-11
4.75433e-13
1.83527e-10
0.00062396
7.38773e-07
-1.6757e-11
5.19067e-13
-3.3849e-11
8.33165e-05
-1.19619e-07
2.62647e-13
2.63018e-11
-6.62718e-10
-0.00109002
-2.99966e-06
3.11683e-12
-3.32815e-13
1.60861e-10
0.0011092
1.77912e-06
2.60952e-13
-1.32782e-11
-5.90198e-12
6.75234e-07
0.000619749
0.00070761
0.000708588
0.000708059
-5.00455e-05
4.56605e-10
-2.85961e-12
0
6.5474e-12
2.94872e-12
1.76292e-11
-3.62844e-12
-7.25736e-13
-2.72501e-11
-2.61027e-11
0
-4.46885e-13
0
5.95421e-13
-4.27791e-12
-1.66167e-11
5.08087e-12
-1.53873e-11
4.66357e-12
-3.98232e-12
-4.46621e-13
-2.68119e-12
3.10986e-14
-3.60994e-13
3.66826e-11
4.26223e-10
4.40795e-10
3.92086e-10
4.26756e-10
-6.41793e-11
-1.79307e-11
2.12212e-14
3.60023e-14
2.97635e-13
-1.24412e-07
-0.000212232
-0.000220916
-0.000221141
-0.000220758
-0.000197914
4.60104e-10
2.60347e-12
1.09307e-13
-5.89544e-12
1.61298e-06
-6.7169e-09
1.52385e-11
1.67178e-13
-2.71131e-11
3.28433e-08
-4.8453e-10
-4.83343e-14
-1.27037e-11
2.57048e-11
9.07864e-09
4.42744e-11
-3.06807e-11
3.37167e-13
2.57484e-12
-8.90471e-08
1.79342e-09
9.36365e-14
1.20984e-11
-5.89514e-13
-7.3807e-06
5.71381e-09
1.55856e-11
-3.13904e-13
4.64768e-13
2.10206e-08
-7.05457e-07
-7.3922e-07
-7.41562e-07
-7.31353e-07
-2.59815e-07
4.69025e-12
-1.49917e-13
0
-4.46438e-12
-5.89776e-13
1.61731e-11
-2.03201e-11
5.08054e-12
1.00563e-11
4.8671e-12
-2.38187e-12
1.48971e-13
-3.42505e-12
-1.20554e-11
1.26776e-11
2.90917e-13
6.94771e-12
-5.35525e-12
-1.42507e-11
2.94762e-13
-1.10156e-11
1.4895e-13
-1.84316e-11
-4.17876e-11
-1.17035e-12
1.68466e-13
2.37491e-11
-1.8425e-13
1.16534e-11
3.20898e-13
1.04812e-11
-1.35617e-11
-1.51566e-11
2.61958e-11
-2.18436e-11
5.59906e-11
-2.66287e-11
-1.58728e-12
-2.92524e-13
3.19198e-11
3.01772e-13
-3.12243e-13
-2.5818e-13
3.53218e-11
2.37313e-11
8.16792e-13
1.32075e-11
-1.42497e-13
-3.59053e-11
-9.49443e-13
-2.43737e-11
7.77308e-14
2.6919e-13
-2.00129e-13
2.41491e-13
2.49297e-11
-1.22674e-11
-1.31685e-11
2.90631e-11
3.33947e-12
-6.75478e-12
-1.98089e-11
9.15772e-14
-2.82416e-11
-4.9976e-11
4.04525e-11
1.2497e-11
1.28604e-11
2.88377e-13
-2.52039e-11
-1.17507e-11
-1.91616e-11
9.52434e-12
-5.39455e-12
-2.16802e-11
-3.46188e-11
1.99853e-11
-5.95753e-13
-2.0385e-11
-2.78487e-11
-4.65293e-12
6.36777e-12
5.35564e-12
-2.90952e-13
-2.94817e-11
-1.1461e-11
1.48958e-13
-1.48902e-13
2.0982e-11
-2.1953e-11
7.26523e-13
2.03814e-11
-1.48878e-11
1.27838e-11
-4.41957e-13
4.61408e-12
-1.38512e-11
-1.25678e-13
1.07932e-11
-1.79365e-11
-2.98077e-13
1.95229e-11
2.09382e-13
1.30539e-11
-2.68993e-11
1.88989e-12
-2.23887e-11
2.23237e-13
1.19158e-12
3.36234e-13
-1.39957e-12
2.55572e-11
1.82152e-12
-2.88313e-13
1.91528e-11
-2.11366e-12
1.36324e-11
1.98496e-11
7.93332e-13
-1.74329e-12
-2.51414e-11
2.18503e-11
5.76617e-14
-2.11036e-13
5.89732e-13
5.7508e-11
-3.89196e-13
-1.64628e-12
8.09648e-15
4.91554e-11
-3.14059e-11
-1.75891e-11
-1.02506e-12
-5.47472e-13
1.16822e-11
-3.42262e-13
1.02165e-12
-2.60994e-11
-5.88527e-13
4.17743e-11
-1.80183e-11
2.4785e-12
1.10032e-12
3.5252e-13
7.55871e-11
4.43198e-12
-2.702e-11
-4.12327e-11
-8.46503e-12
7.51903e-12
1.1527e-11
-1.19941e-13
7.14829e-12
2.97563e-13
-8.98468e-12
1.59788e-12
4.91394e-12
8.23916e-12
-8.71871e-13
2.56361e-11
-8.92898e-13
1.51919e-11
0
5.95208e-13
5.30365e-12
1.52545e-11
2.89031e-13
-1.44507e-13
-2.64343e-11
1.69398e-11
1.04181e-12
-4.46793e-13
5.58469e-13
7.79856e-13
-2.68727e-12
-8.50528e-14
-3.21657e-11
-1.33822e-14
-4.79195e-12
1.7395e-11
-1.93663e-12
-1.83384e-13
-1.22957e-11
0
-1.85813e-11
2.04262e-13
4.5062e-11
5.29335e-11
-1.98197e-12
7.20131e-13
-3.02003e-13
-1.88051e-11
4.76551e-14
4.79754e-13
7.55535e-12
1.40836e-13
-1.43368e-11
1.19118e-11
-2.86761e-11
7.55096e-11
-4.48356e-13
1.83496e-11
1.04428e-13
2.62793e-11
5.07893e-13
1.49839e-13
1.4209e-11
-1.68483e-11
2.19867e-12
8.46248e-13
-2.18814e-13
6.38357e-13
-1.98553e-14
2.94407e-13
-5.14893e-11
7.2939e-13
-1.7362e-11
1.72317e-11
3.69579e-15
-9.55069e-12
2.48565e-11
-3.29713e-12
7.34117e-13
2.91805e-13
6.59327e-13
-4.37241e-13
-1.02232e-12
1.4891e-13
-1.48773e-13
2.60664e-11
1.94601e-11
-2.38409e-11
5.92437e-12
-5.37396e-12
-2.94576e-13
-1.488e-13
1.66803e-11
4.46681e-13
-4.76182e-12
0
-2.90671e-13
-2.89151e-13
-5.20436e-12
2.46983e-12
-1.0312e-12
2.11335e-11
6.10622e-12
4.53105e-13
6.09361e-13
1.1552e-11
2.97679e-11
-2.6393e-13
1.05622e-11
9.13314e-13
1.37918e-12
1.3872e-11
-6.55799e-12
1.70311e-11
2.97772e-13
-5.94749e-11
-3.97484e-11
-6.35244e-11
2.82778e-13
-3.84303e-12
-5.40183e-11
3.4121e-11
-6.64528e-14
1.29219e-11
5.17933e-13
-6.04332e-11
-7.2389e-11
1.28429e-11
-1.67741e-11
2.33064e-11
-2.94938e-12
3.98806e-11
-7.6723e-14
-1.23501e-11
4.19181e-12
5.81896e-11
9.20028e-13
-1.18743e-14
-1.1751e-13
-2.81757e-11
-3.06912e-13
-9.98363e-13
2.61106e-14
4.37472e-14
-9.04245e-13
7.32969e-13
-2.50412e-11
-2.17809e-13
-7.69707e-14
-8.55776e-13
-2.97064e-11
-1.02477e-11
-1.82403e-11
-5.87161e-13
-3.12191e-11
-1.93255e-11
2.56369e-11
-1.75603e-11
-1.4891e-13
-4.46322e-13
5.00762e-12
5.66531e-12
5.05913e-12
0
5.22967e-12
-4.41876e-13
-1.48802e-13
-1.69785e-11
0
0
-2.94827e-13
2.91028e-13
4.20012e-12
-4.19986e-12
1.4547e-13
5.45309e-12
4.16751e-12
1.48946e-13
-5.66588e-15
5.67092e-13
1.31133e-11
-2.99131e-11
-8.9577e-12
-8.92521e-13
-8.17122e-14
1.06847e-12
3.13115e-11
-8.21086e-14
-1.38382e-11
3.20399e-13
1.67452e-12
-2.14996e-11
1.96167e-13
-2.07799e-11
-2.59258e-13
-1.8285e-11
-3.04737e-11
-1.53283e-11
-2.74185e-13
2.26819e-13
-1.44302e-10
3.51613e-13
-7.41497e-14
1.37172e-11
-4.07025e-13
-5.95406e-11
4.46847e-14
1.14236e-11
2.60517e-13
-2.50975e-13
-1.32498e-13
7.20731e-14
1.69702e-15
-1.5391e-11
1.66474e-12
-6.83467e-13
-3.41524e-14
3.95473e-12
2.41273e-13
7.18494e-13
4.1791e-12
-4.70866e-11
-2.24514e-13
1.51829e-11
-2.02886e-13
2.39147e-11
-7.98583e-13
-2.2897e-11
1.25325e-11
9.10749e-12
1.02406e-12
4.87563e-11
-1.79363e-11
1.48925e-13
1.48788e-12
2.65231e-12
5.81811e-13
-1.24531e-11
-1.85349e-11
7.27251e-13
3.83122e-12
-3.57168e-12
-1.81721e-11
-1.50422e-11
2.97705e-13
-2.95036e-13
0
0
-3.77611e-12
2.91569e-13
1.47512e-13
-1.93553e-11
2.97947e-13
-3.10534e-12
2.95396e-14
1.40036e-13
4.1011e-13
-3.80113e-13
-1.16005e-12
-2.33813e-12
-5.49265e-13
8.93798e-12
-1.66955e-13
1.53313e-11
8.92472e-13
-7.1405e-11
-1.99568e-11
2.27051e-11
1.93746e-12
4.07105e-12
-2.62251e-11
-4.47154e-11
-4.73315e-13
2.08399e-12
2.2696e-13
6.00646e-14
1.17843e-11
-3.3882e-14
-3.62781e-13
-3.32145e-11
-4.10308e-13
5.29348e-13
4.60124e-13
6.38801e-13
3.34929e-11
-5.68698e-11
-8.93028e-14
2.10599e-13
4.61033e-13
4.52312e-13
-3.75836e-14
3.44098e-11
-4.37023e-13
6.65868e-13
4.98212e-13
-1.69693e-12
-3.4826e-11
5.58865e-14
-1.58136e-13
2.24552e-13
-1.20691e-12
4.23022e-12
-3.61124e-12
9.89306e-12
-1.76188e-12
1.08831e-11
4.8279e-13
-1.52414e-14
-5.9584e-13
2.57493e-11
8.84916e-13
-1.55975e-11
-5.08251e-12
0
4.37276e-12
1.755e-11
7.29456e-12
-2.97966e-13
1.34058e-11
1.48879e-13
1.47521e-12
-1.45701e-13
6.52807e-12
-4.64209e-12
-1.45683e-13
5.60537e-12
-4.46721e-12
4.32059e-12
-8.02355e-14
2.31381e-13
-2.77022e-11
3.87676e-11
2.54293e-13
2.54983e-13
2.13357e-13
-2.91908e-11
-1.68722e-13
4.83242e-12
5.93838e-12
2.97807e-13
4.53298e-11
-2.74983e-11
-3.6493e-11
4.13151e-11
-3.12468e-12
4.87932e-11
2.59658e-11
4.2457e-13
-4.57932e-13
2.44165e-11
-2.07659e-12
-6.78127e-14
-3.10225e-13
-1.99346e-11
-2.2964e-11
-2.71195e-12
-2.53815e-11
2.02359e-11
8.27301e-14
-3.45517e-13
5.04545e-11
-7.47544e-13
-6.09514e-13
-1.40848e-13
-1.88638e-13
1.55186e-13
1.14723e-15
-2.01835e-11
4.653e-13
-2.94556e-13
4.08053e-13
5.85769e-13
8.05991e-13
2.07122e-13
3.37337e-13
3.9424e-12
-1.09415e-11
1.40781e-11
-1.67598e-11
8.3703e-12
5.12497e-13
1.31993e-13
6.32393e-14
-1.48979e-13
-1.42912e-11
-1.54845e-11
5.38901e-12
-7.25208e-13
0
-4.36934e-12
1.47472e-13
1.48896e-12
-1.49003e-13
2.20447e-11
4.01906e-12
-5.15968e-12
-1.68691e-11
-1.18644e-11
-1.08516e-11
1.57055e-11
-2.87458e-11
2.82863e-12
0
-3.48812e-14
-7.29237e-13
-1.01942e-12
9.21526e-12
9.29561e-12
4.60753e-11
7.58736e-12
2.39396e-11
1.09107e-11
7.07991e-13
-2.19972e-11
8.9366e-13
-8.85359e-14
-9.56922e-13
2.87721e-12
-4.8075e-11
-3.11351e-12
-3.98361e-11
-3.01964e-13
6.50433e-14
-4.93995e-13
9.02519e-14
-1.2163e-11
4.60898e-12
-8.61679e-13
-1.51174e-11
2.73739e-13
-3.68269e-13
-3.61881e-11
5.13271e-12
3.92796e-13
-3.33585e-13
-2.13491e-12
3.23427e-11
-3.22681e-13
6.33386e-13
3.59859e-14
-7.54492e-13
1.44019e-13
-2.54021e-11
1.76498e-13
4.40805e-13
9.88774e-14
-8.77822e-12
-1.67799e-11
1.44473e-11
-2.93058e-11
1.21836e-11
1.65569e-11
8.41324e-12
-1.19466e-11
-7.50512e-12
2.99859e-11
1.03865e-11
2.07849e-11
1.48969e-13
5.06043e-12
-5.01007e-12
-2.86363e-11
-1.44661e-13
1.0271e-11
-4.79696e-12
-9.43115e-12
0
1.74328e-11
1.48964e-13
1.48847e-13
-1.8273e-11
2.22346e-11
1.44573e-13
6.93971e-12
-4.21477e-12
1.53274e-11
4.16839e-12
4.46931e-13
1.33715e-13
-1.9236e-14
-1.6862e-11
4.01625e-11
2.91445e-13
1.52845e-11
6.53682e-13
-2.37979e-11
2.60026e-11
1.35618e-11
-1.07343e-13
5.95523e-13
-2.34251e-11
-3.17263e-11
1.86745e-12
-5.53198e-11
2.53602e-11
8.80659e-11
-2.477e-11
-1.76668e-13
8.62787e-14
-3.60145e-13
-1.73963e-12
-2.24859e-13
-1.36156e-11
-1.35814e-13
-4.58808e-13
4.77732e-11
-2.43355e-11
9.34529e-14
-1.53195e-11
8.54293e-13
7.48695e-11
2.47068e-11
-1.94551e-11
4.82616e-14
-2.13349e-13
2.18891e-12
-1.92599e-13
-1.19178e-11
1.57273e-11
3.93815e-13
1.67261e-12
-8.18755e-13
1.97373e-11
-1.14005e-13
8.1649e-13
-3.21681e-11
-2.28952e-11
8.35108e-12
3.66976e-13
-1.8236e-11
8.98649e-13
-7.57841e-13
1.2205e-11
0
-8.92979e-13
1.23752e-11
6.10183e-12
2.7609e-11
-2.74644e-12
1.07508e-11
2.37198e-11
4.91248e-12
-1.49011e-13
-2.0863e-12
-5.21148e-12
5.45398e-12
1.45375e-13
1.44649e-13
-2.4013e-11
2.90812e-13
6.63438e-12
1.19132e-12
1.98204e-11
1.26451e-11
-2.78881e-13
-1.08823e-11
-3.36864e-13
-6.33555e-12
-8.03256e-12
2.41001e-12
-2.21007e-12
2.98048e-11
-2.58786e-14
2.89983e-11
2.97767e-13
-1.81883e-12
-1.99312e-12
4.72526e-12
-5.63189e-11
1.54473e-11
-1.872e-12
-6.10141e-11
-1.8936e-11
2.34399e-13
1.12664e-13
0
3.05391e-11
1.75303e-13
-1.39055e-11
7.28252e-13
5.89879e-13
-2.31014e-13
1.14091e-11
-2.82535e-13
-7.85911e-13
5.77452e-12
2.47854e-13
-3.38489e-13
1.95408e-13
5.53689e-14
5.52412e-11
-8.54811e-13
4.45766e-12
3.25984e-13
-7.11937e-12
2.10436e-12
1.75638e-12
2.33497e-11
-6.86361e-14
4.07668e-11
-4.27776e-12
1.03943e-11
1.61176e-11
-2.96547e-11
-1.96233e-11
-6.63427e-12
-1.8942e-13
-1.63939e-11
0
-1.31008e-11
-6.18986e-12
-5.95945e-12
1.9525e-11
8.96699e-12
1.88953e-12
-1.47378e-13
-2.21872e-11
-2.35524e-11
0
-1.08795e-11
5.16665e-12
7.2858e-13
-4.35197e-12
4.49731e-12
-1.45758e-13
5.02024e-12
0
1.46149e-11
1.31852e-11
-6.46646e-12
-1.75769e-13
1.58669e-13
-6.00434e-13
5.41928e-13
-8.86462e-13
-2.02717e-11
-4.28919e-13
1.4602e-11
3.11403e-14
3.55664e-11
-2.16379e-12
-3.01869e-12
-7.1117e-14
3.16934e-11
1.11364e-12
1.68285e-11
2.41588e-12
-1.29719e-13
5.0824e-12
-3.55233e-11
-1.73889e-11
-3.64248e-13
1.62735e-11
-3.03247e-13
8.48565e-14
-2.11706e-13
3.44433e-11
-6.68958e-13
-3.63438e-11
-1.26283e-14
5.09248e-11
-3.57529e-11
-3.06779e-11
4.17636e-13
2.3892e-13
5.52848e-13
-8.54808e-14
2.72455e-12
1.91644e-11
-3.87825e-11
1.57765e-12
6.35898e-13
4.11441e-11
9.85e-14
-2.57992e-12
-2.44814e-11
-9.44054e-12
-3.73892e-11
1.19487e-11
-1.38451e-12
-2.8361e-11
-2.52335e-13
-1.62348e-12
-5.96477e-13
7.15212e-12
-7.52745e-12
1.1656e-12
5.80194e-13
-6.67218e-12
2.91388e-13
5.60848e-12
8.79311e-12
-2.64037e-11
2.98535e-13
1.94048e-12
0
4.99086e-12
-5.26912e-12
-2.92744e-13
-4.40469e-13
-5.63217e-12
-5.52279e-12
2.23886e-12
1.45534e-13
3.42978e-11
-1.00812e-12
2.9601e-11
1.04721e-11
-1.12482e-12
3.22412e-13
-1.20974e-11
-4.52229e-12
1.80362e-11
-1.17531e-11
-3.49258e-11
-7.60104e-14
-3.89156e-11
-6.09808e-12
4.37756e-12
1.84455e-13
1.14766e-12
-1.96035e-11
1.56325e-11
-1.23987e-12
3.61527e-11
5.83982e-11
2.22974e-11
-3.78407e-14
1.1592e-11
-7.48935e-11
-6.26861e-13
-2.48892e-11
7.79495e-14
6.87591e-13
3.93998e-11
-8.12006e-11
2.48226e-11
2.35214e-13
5.47154e-13
2.77894e-13
1.01498e-10
3.91773e-13
-2.02456e-13
-1.32508e-11
8.6446e-14
1.15687e-12
3.39226e-11
3.28592e-14
1.18635e-11
3.47881e-11
-2.88692e-11
-2.65312e-11
0
-9.36436e-12
-8.73442e-13
1.11165e-12
-7.61468e-12
-6.66331e-14
2.50721e-11
-5.67062e-12
1.03725e-12
2.83281e-11
-6.00027e-12
-1.46347e-13
-6.31109e-12
2.96337e-13
5.8211e-12
0
0
-5.37533e-12
-2.3217e-11
-1.4822e-13
6.51514e-12
0
1.70471e-11
5.95334e-13
5.07637e-12
-1.49211e-13
-1.76173e-13
5.68657e-13
-1.7096e-11
-2.57338e-13
-4.85591e-12
-1.08985e-12
3.45779e-11
1.29136e-11
4.75583e-12
1.26006e-11
-1.25334e-11
8.96191e-13
-1.39862e-13
1.81059e-11
-1.63173e-11
2.63676e-11
1.12201e-11
-1.7413e-11
-4.53552e-12
1.58605e-13
1.60251e-13
5.12447e-13
-1.4937e-12
2.6965e-11
-1.25187e-11
-9.52261e-12
2.46348e-11
-6.78967e-11
-2.74675e-11
1.39571e-11
-2.78297e-13
-2.7306e-11
1.04722e-11
1.54347e-11
1.18609e-13
2.1402e-11
1.67386e-12
-5.85841e-11
1.60648e-11
-1.46766e-11
-1.63126e-11
-4.81735e-14
2.60494e-12
-3.16801e-11
-1.53078e-11
6.31526e-13
5.75312e-14
0
7.49011e-12
1.37757e-11
-1.29468e-11
2.01739e-13
-1.16553e-11
-1.10693e-13
6.33464e-13
1.65598e-11
0
-1.78549e-11
0
1.48054e-13
-3.84936e-12
0
2.97592e-13
1.04504e-12
1.53709e-11
1.23576e-11
2.6948e-11
3.8192e-11
5.78537e-12
4.15191e-12
8.00784e-12
5.04381e-12
-1.72378e-11
-4.61522e-12
-1.22071e-11
1.25599e-11
4.24064e-11
1.64294e-11
1.78127e-13
-8.55692e-12
-3.66891e-13
-1.14898e-11
-2.92732e-11
1.27511e-13
1.25382e-11
-9.66528e-14
7.31398e-14
-3.70434e-11
-1.61085e-11
1.90664e-11
-4.19955e-11
9.22553e-12
1.69784e-11
2.97139e-13
1.2026e-11
1.83923e-13
-2.96371e-13
3.57404e-11
3.85261e-11
-9.03532e-12
-4.78899e-11
-4.27577e-11
6.7463e-11
-5.74103e-13
3.5576e-12
-9.74002e-14
2.55189e-11
-9.79177e-13
-2.96871e-11
5.57618e-12
3.12328e-11
2.49795e-11
4.73257e-11
2.48568e-11
4.30118e-13
6.45775e-14
-2.58607e-11
3.01715e-13
-2.93795e-11
-6.18104e-12
-2.50592e-13
-4.23655e-11
-6.3337e-11
-2.50989e-11
-1.58864e-11
1.53729e-12
5.17333e-13
-3.69196e-11
5.71139e-11
-6.07098e-13
-4.03412e-11
4.21455e-11
7.12054e-13
-3.15431e-11
1.36994e-12
-3.97359e-13
-3.36661e-11
4.9969e-11
-3.41951e-11
5.04663e-11
5.60761e-11
7.07074e-11
-9.6167e-13
3.24813e-11
-1.96848e-13
-1.63937e-12
6.93492e-12
-2.6064e-11
-2.08913e-11
-2.52473e-12
-5.88466e-11
3.15678e-11
2.43735e-13
-3.00538e-13
-1.68896e-12
-1.48846e-13
1.78599e-12
-1.33709e-12
4.8948e-12
2.52056e-11
-8.89643e-13
2.52151e-11
4.16019e-12
-2.08395e-12
0
4.45413e-13
1.57279e-11
-1.51133e-11
0
1.06602e-11
3.19652e-11
-1.7466e-11
-2.7276e-11
-3.47218e-11
-2.99886e-11
-2.72622e-13
1.16158e-13
1.86853e-11
-4.6292e-12
5.21324e-12
5.16519e-12
5.22392e-12
-2.21886e-11
-1.27045e-11
-1.48809e-11
-6.56493e-13
-1.54738e-11
1.55018e-11
4.06112e-13
-3.7476e-11
-1.23663e-11
2.07187e-11
-8.54043e-15
2.19916e-11
5.5566e-13
1.87423e-13
-1.62078e-13
2.87223e-11
9.51726e-14
3.6078e-11
-4.22128e-13
3.62661e-11
-4.18303e-13
6.20097e-13
3.36705e-13
-1.58678e-11
2.62904e-13
-2.97119e-11
2.18035e-11
7.40766e-12
-3.51385e-12
-6.89228e-11
-1.29457e-12
1.46635e-11
1.44187e-11
7.35424e-14
1.66976e-11
4.01162e-13
-1.99588e-11
5.94888e-12
4.22445e-12
3.28074e-11
8.82313e-13
-2.76693e-13
1.52897e-14
3.11338e-11
-5.71699e-12
-3.92242e-13
-9.37275e-12
-2.42555e-11
9.76508e-13
-8.69949e-13
2.96745e-13
-1.91008e-11
2.78543e-13
-1.55761e-13
-2.23391e-11
3.49208e-13
2.60847e-11
-2.70451e-11
-8.82555e-13
1.39743e-12
1.27919e-13
-3.57649e-13
2.69942e-13
-3.122e-11
4.33196e-12
-4.18362e-14
5.06386e-12
2.68659e-11
-5.2382e-12
1.58567e-12
-6.79391e-12
-2.60254e-11
1.46603e-12
-1.58836e-11
0
-3.85345e-12
-1.24322e-11
1.90981e-11
1.56853e-11
2.95997e-13
1.61485e-11
1.92869e-12
1.18771e-12
-1.18562e-12
-4.44367e-13
0
2.66282e-12
0
1.47916e-13
-1.47938e-13
-1.48023e-13
-5.92489e-13
-5.92785e-13
3.8287e-12
-4.6892e-13
1.3001e-13
2.76105e-12
-3.31077e-14
1.64057e-11
8.13333e-14
-1.23127e-11
-6.90278e-13
-5.91183e-13
-1.32113e-11
1.3117e-11
-8.21958e-14
-2.65927e-12
-1.79765e-11
4.03771e-14
9.80391e-14
-4.30426e-14
3.66491e-13
-4.41352e-14
-5.03296e-12
-1.78263e-11
4.24935e-15
-8.22115e-15
6.13968e-13
-1.66381e-11
-1.55384e-13
1.18635e-11
-1.64768e-11
-1.29971e-13
1.33491e-11
-1.24539e-11
-1.59182e-11
2.92734e-12
1.80474e-11
3.63411e-13
-1.15224e-11
1.24474e-13
-6.0789e-14
1.20187e-13
7.71371e-14
1.78788e-11
-1.96315e-11
-8.53407e-14
-1.17123e-12
5.43187e-14
1.21872e-11
5.78062e-13
1.65352e-11
9.624e-14
1.29747e-11
-4.73882e-13
1.56636e-11
-6.63063e-15
-6.18958e-14
-1.90273e-13
-7.40461e-12
-3.65679e-13
-8.69567e-14
7.33331e-14
-2.22725e-13
-6.5004e-14
2.01667e-11
1.41261e-11
6.17213e-13
-6.07288e-13
7.90011e-12
2.52116e-13
2.65224e-13
5.04354e-13
-1.25974e-11
8.56207e-15
-4.10653e-13
-1.40643e-15
-7.78415e-14
1.05121e-13
1.95354e-11
-4.5025e-14
-2.12049e-13
-3.13801e-13
-1.48188e-13
-1.48109e-13
-7.40029e-13
-1.42009e-11
1.47915e-13
1.47906e-13
-1.92299e-11
-4.43998e-13
0
-2.96396e-13
0
1.48005e-13
-1.28714e-11
1.24241e-11
-2.95791e-13
-1.47896e-13
5.02894e-12
1.31677e-11
5.92028e-13
1.48051e-13
-1.27833e-11
-2.84829e-14
-1.22681e-11
-1.41876e-13
-2.03783e-13
-2.17498e-13
1.10949e-13
1.42921e-12
-1.12424e-11
3.14069e-13
-1.23562e-11
-2.8527e-14
3.76758e-13
-2.80869e-11
-1.18471e-11
-3.4771e-12
-8.54768e-12
-1.63229e-11
8.85513e-14
-1.05533e-14
1.35263e-11
-1.26438e-11
-1.3436e-11
-8.81293e-14
1.63296e-11
2.25367e-11
-4.48071e-13
1.11045e-11
1.20615e-11
1.27934e-12
1.21813e-11
-1.21179e-13
-9.48945e-15
1.57568e-11
1.22549e-11
3.75062e-12
3.29827e-12
1.71955e-11
6.29446e-14
-5.16008e-13
-6.66943e-13
-3.95078e-12
1.28955e-12
1.89166e-13
-1.6493e-11
-3.86974e-11
-1.63382e-11
1.13625e-12
-1.30812e-11
-1.00192e-12
-1.90803e-13
1.19302e-13
-4.50171e-14
-9.40372e-14
2.86887e-13
-5.0259e-13
-3.48382e-13
-1.16166e-12
1.74829e-13
1.34328e-11
2.01556e-13
1.67003e-13
-2.96242e-12
-9.52382e-15
1.76353e-11
1.7541e-11
1.70708e-11
-1.88277e-13
1.3037e-11
-8.24141e-14
5.22382e-14
1.20167e-13
-9.00285e-13
9.28943e-14
-9.44747e-13
-1.43705e-11
-3.82135e-13
-1.60924e-11
1.99719e-11
-1.30492e-11
-1.48043e-13
1.62796e-11
1.47939e-11
-2.95797e-13
-1.74508e-11
-1.4493e-11
-4.437e-13
-1.58297e-11
1.98323e-11
0
-2.9446e-11
-1.70137e-11
7.3958e-13
0
5.91557e-13
-1.4789e-11
0
5.91681e-13
1.27236e-11
2.95944e-13
-2.58214e-11
-1.39169e-11
1.99395e-13
-1.15889e-11
-1.1575e-11
-1.1965e-11
-2.0228e-13
1.67495e-11
3.53206e-14
3.89282e-13
1.55918e-11
1.71532e-11
-5.91597e-13
-8.78437e-13
-1.73666e-11
-3.94832e-12
2.19123e-14
2.49752e-13
-1.26399e-11
5.40958e-13
-3.02615e-12
1.41031e-11
-3.54495e-13
1.15219e-11
-4.14082e-12
1.22562e-11
-2.56277e-13
-2.99908e-11
1.18898e-11
3.30999e-12
1.08701e-12
1.58933e-11
-5.15926e-14
-1.81994e-14
1.74439e-11
1.90056e-11
-2.12533e-14
-1.38022e-13
-6.79604e-15
1.14066e-11
1.62195e-11
4.36407e-14
1.37366e-11
2.66398e-13
1.55422e-11
-1.15659e-13
-4.25174e-13
1.36823e-11
3.73602e-12
-3.33709e-12
-3.41585e-13
-1.58329e-11
-1.72185e-13
-3.58482e-14
-1.69471e-11
-1.35434e-12
5.01867e-14
-8.02125e-13
-3.83488e-13
-1.20319e-11
2.39325e-13
-1.65627e-13
-1.32926e-11
1.176e-13
4.87152e-13
8.03641e-14
2.28796e-13
2.2006e-13
-2.88937e-11
-2.48501e-15
-1.78021e-13
2.46167e-13
-2.05921e-13
-9.07357e-14
1.66444e-11
1.11905e-12
2.9318e-12
4.94726e-13
6.09e-13
1.97012e-14
0
4.43819e-13
1.4791e-13
2.95779e-13
0
0
2.80996e-12
0
1.28713e-11
2.95943e-13
-9.83702e-12
-6.65729e-13
7.39659e-14
-3.69593e-13
1.25697e-11
-5.02791e-12
-5.17485e-13
-7.39032e-14
-2.2181e-13
7.37721e-14
-9.53921e-12
-1.40432e-12
7.39413e-14
-1.26437e-11
-8.87269e-13
-1.61193e-11
-1.35317e-11
-7.3885e-14
7.42186e-14
2.22501e-13
2.21045e-13
5.16808e-13
-2.95708e-13
1.48213e-13
-1.39018e-11