/*--------------------------------*- C++ -*----------------------------------*\
  =========                 |
  \\      /  F ield         | OpenFOAM: The Open Source CFD Toolbox
   \\    /   O peration     | Website:  https://openfoam.org
    \\  /    A nd           | Version:  10
     \\/     M anipulation  |
\*---------------------------------------------------------------------------*/
FoamFile
{
    format      ascii;
    class       volScalarField;
    location    "1.1";
    object      gradTy;
}
// * * * * * * * * * * * * * * * * * * * * * * * * * * * * * * * * * * * * * //

dimensions      [0 -1 0 1 0 0 0];

internalField   nonuniform List<scalar> 
46825
(
-2.98172e-13
0
0
2.42407e-11
1.03996e-12
-1.41138e-11
4.46156e-13
-2.12981e-11
1.49078e-13
7.45498e-13
2.07046e-11
1.18533e-14
2.70012e-11
4.45526e-11
4.03719e-14
-1.40588e-11
7.32036e-13
3.97088e-12
3.02266e-13
7.74353e-13
6.58147e-13
-1.8223e-13
6.24326e-13
-2.31038e-11
-1.43288e-12
-2.05671e-13
1.74917e-13
5.45423e-11
-2.06028e-13
-5.85833e-13
-4.15965e-11
-3.38221e-13
-2.65992e-11
-2.0088e-11
-6.34567e-14
1.76176e-13
-2.78375e-14
2.83795e-11
-4.84493e-13
3.15537e-13
2.03071e-11
-4.81572e-14
1.93838e-11
2.32393e-11
5.30326e-14
2.4026e-11
-6.12338e-15
-2.86279e-11
-4.09473e-14
-2.41753e-13
2.10792e-11
1.867e-11
7.08873e-12
2.02168e-11
-6.39775e-13
9.20633e-13
2.61968e-13
-2.75748e-11
-1.08153e-13
-1.05111e-13
-1.98594e-11
1.38824e-14
-1.9967e-11
9.26864e-12
1.98238e-13
-2.4289e-11
7.42774e-14
-2.09563e-11
1.11633e-13
2.84099e-13
-6.28292e-13
-1.82582e-11
-2.44095e-11
-2.03094e-11
3.15463e-13
-7.91219e-13
-1.23557e-13
6.10387e-13
3.4549e-14
-3.83379e-13
-1.46552e-13
3.56492e-13
1.02776e-13
-1.02668e-11
2.53838e-14
4.96138e-14
-4.04918e-13
2.06976e-11
4.474e-14
2.02029e-14
0
-1.49096e-13
1.69813e-11
-7.43695e-13
0
0
2.9749e-13
-1.04278e-12
0
-2.98252e-13
0
1.49346e-13
0
-2.50716e-11
1.87977e-11
0
-5.96944e-13
-1.91154e-11
0
-1.96965e-11
-1.31235e-14
-5.69856e-15
1.32064e-11
8.30025e-12
-6.5067e-12
-6.58161e-12
-2.61727e-13
-3.76005e-11
-1.70891e-13
-2.01091e-11
3.11807e-14
-3.75211e-13
-5.24057e-11
3.38249e-11
-2.76346e-11
-7.16104e-13
-9.43289e-13
1.36725e-11
1.00042e-13
-1.44286e-13
-2.23791e-13
1.48379e-13
2.50201e-12
-1.39527e-12
2.74277e-12
2.24128e-12
9.73701e-13
-2.39372e-13
1.00957e-12
6.76047e-14
-7.61812e-14
7.95525e-14
4.89822e-11
-2.15691e-13
4.61757e-11
4.58263e-11
6.12738e-13
1.32864e-13
-1.24183e-13
3.6029e-13
-1.65343e-14
1.9129e-11
-3.75381e-13
1.65605e-13
-4.72179e-11
-4.6149e-11
6.84872e-11
3.23969e-13
-1.05148e-12
-3.70002e-14
3.37674e-13
-5.15675e-13
-3.09901e-13
-6.82798e-13
-4.461e-13
-2.47508e-13
-6.96215e-11
4.08147e-11
-3.2928e-11
1.97463e-13
-5.24886e-12
-1.89261e-11
-4.12199e-11
-4.24274e-12
-4.37922e-11
-1.05323e-12
-5.96555e-13
-3.91301e-11
2.51464e-13
4.46992e-13
3.0193e-14
5.17091e-13
-1.19749e-12
8.22704e-13
1.34622e-11
6.432e-12
-7.8533e-13
-9.84233e-12
3.31124e-11
-2.2059e-11
5.07349e-12
4.48054e-13
-4.47996e-13
1.49228e-13
4.47528e-13
-2.01392e-11
4.47715e-13
2.15058e-11
0
-2.20859e-11
-5.62345e-11
-1.49274e-13
-3.4752e-11
-1.19217e-12
2.7276e-11
1.34142e-12
-5.55827e-11
9.39661e-12
1.49293e-13
1.49191e-13
-2.54944e-11
4.10833e-13
-3.47951e-11
-4.00536e-11
-1.79577e-11
-3.67872e-12
-4.3289e-11
-5.28521e-13
-2.06332e-13
2.47442e-13
5.37672e-11
2.29886e-13
-4.74426e-11
9.46657e-10
1.55201e-09
1.47495e-09
1.55679e-09
-1.30984e-10
4.48129e-13
2.58262e-11
-3.52266e-12
1.03367e-13
9.17103e-11
-2.97519e-07
-2.98368e-07
-3.03523e-07
-2.5561e-07
-2.67523e-08
-4.64709e-13
-3.28592e-11
-2.60171e-11
-9.16074e-14
-9.90183e-11
-3.93424e-09
1.67933e-07
1.78096e-07
1.36836e-07
-5.57729e-09
-5.28242e-13
-2.59157e-11
-1.17763e-13
4.5311e-11
1.09439e-10
1.86919e-09
-3.99568e-08
-4.14596e-08
-3.40889e-08
1.70485e-09
2.00545e-12
3.28976e-11
1.61786e-13
-9.9182e-11
-4.84644e-11
3.62332e-08
-4.88534e-07
-5.06519e-07
-4.19434e-07
1.81402e-08
-1.84215e-12
1.92378e-11
-2.3886e-13
1.15978e-10
1.27018e-12
2.20311e-08
1.07805e-07
1.10985e-07
9.69228e-08
-3.68063e-10
1.2238e-12
6.60494e-13
5.83028e-14
-6.16192e-11
-6.3239e-12
3.99173e-11
6.58168e-13
-1.97177e-11
4.71158e-13
1.992e-12
-6.91671e-13
-1.89519e-11
-1.49171e-13
0
0
-1.60883e-11
-7.74827e-12
3.11429e-11
5.95909e-12
0
-8.50795e-12
-4.47561e-13
-3.92854e-11
3.13591e-11
-5.9072e-13
-2.92031e-11
-4.05866e-11
-5.80187e-11
-4.07875e-11
-9.59898e-12
5.5002e-12
-1.48854e-13
-1.31397e-13
7.35674e-11
1.27617e-10
1.49511e-08
7.81081e-09
7.66168e-09
8.25789e-09
9.56264e-09
-1.1108e-12
-2.37632e-11
4.17342e-11
-4.23202e-11
6.02571e-09
0.000160939
0.000167029
0.000167865
0.000166184
0.000161975
9.29337e-09
-2.87207e-13
3.98547e-13
-1.38233e-11
-6.16314e-07
-1.1646
-1.84378
-1.85395
-1.82875
0.265856
5.45766e-08
3.76642e-12
-2.37473e-11
-6.72222e-11
-6.45547e-09
-0.00938815
-0.0316195
-0.0329469
-0.030039
-0.0290976
3.60164e-09
2.10562e-11
-9.54546e-13
2.68432e-11
1.12379e-08
0.00085819
0.00206386
0.00202803
0.0020218
-0.031457
-5.90242e-10
2.03659e-11
2.06008e-11
2.16878e-11
1.5972e-08
0.051009
0.091248
0.0923022
0.0914643
-0.0350322
-1.23281e-08
-2.19333e-11
7.228e-13
6.3763e-11
1.62208e-06
-0.048133
1.31677
1.32314
1.30026
-0.100288
-1.08536e-07
-1.20805e-13
-2.1588e-13
4.48543e-13
-2.71286e-08
9.98823e-06
9.22429e-06
9.16251e-06
9.31777e-06
7.14086e-06
-9.89963e-11
1.26543e-12
-1.48808e-13
-3.56573e-11
1.46125e-11
2.11188e-11
4.23288e-11
3.86678e-11
2.46402e-11
2.56855e-11
6.09279e-12
4.46502e-13
-2.97237e-13
9.34911e-12
-6.90924e-12
-2.17565e-10
-2.63467e-10
-2.21501e-10
-2.07e-10
2.18963e-11
-4.12622e-11
0
3.33321e-12
1.77909e-13
-1.41889e-09
-6.8257e-07
-1.08564e-06
-1.05289e-06
-1.13265e-06
8.64741e-08
-2.97147e-11
-2.04698e-11
3.11006e-13
8.21928e-11
-4.88957e-07
0.1188
-1.57511
-1.57928
-1.57255
-0.00328376
2.92563e-08
-2.1161e-11
-2.23335e-12
9.20978e-09
0.0344897
1.83777e-05
2.18142e-11
-2.02399e-11
3.1207e-09
0.000943041
3.11051e-06
5.00453e-11
-1.98639e-13
-4.92358e-10
0.000161616
-3.34904e-07
-8.9828e-13
1.94677e-11
-7.32988e-09
-0.00155289
-9.93108e-06
-3.04325e-11
-1.92612e-11
7.71211e-10
0.00171202
4.33377e-06
-2.1523e-11
-9.15357e-13
-2.14021e-14
1.67469e-07
0.00185749
0.00223978
0.00224567
0.00221905
-0.000104768
7.02023e-10
1.09208e-11
1.7983e-11
8.90069e-13
-3.48158e-11
1.7647e-10
2.30843e-10
2.17836e-10
1.78797e-10
1.17529e-12
1.63217e-11
3.22571e-11
2.51244e-11
2.64447e-11
-1.39785e-11
-1.59494e-10
-2.14799e-10
-1.99037e-10
-1.5679e-10
1.23526e-11
6.68565e-12
-1.4871e-13
-2.6971e-14
2.63006e-11
-1.59156e-09
-5.89722e-07
-1.14801e-06
-1.09715e-06
-1.19557e-06
9.06982e-08
-7.50348e-13
-2.05399e-13
-2.57968e-11
4.81028e-11
-6.46309e-07
-1.33459
-1.64545
-1.64999
-1.64063
-0.00207611
9.43001e-08
-2.36256e-11
1.23269e-12
1.09729e-08
0.0431876
3.93042e-05
2.94703e-11
8.45847e-13
4.4039e-09
0.00121612
3.46482e-06
4.69402e-11
-2.1863e-11
-5.42037e-10
0.000251335
-4.34919e-07
-4.76575e-11
-1.27525e-12
-9.93093e-09
-0.00214997
-1.28983e-05
-3.42437e-11
-1.39092e-11
1.0591e-09
0.00181547
4.88427e-06
1.93305e-11
4.63558e-13
-3.56756e-13
2.09782e-07
0.0019065
0.00240112
0.00240939
0.00236712
-0.000112543
9.62732e-10
3.08815e-11
3.52347e-11
7.42502e-12
-4.4692e-11
1.61982e-10
2.2151e-10
2.25261e-10
1.61981e-10
-5.14556e-11
-2.5695e-11
2.02228e-11
4.78973e-11
3.98481e-11
-3.21014e-11
-1.56094e-10
-1.99292e-10
-1.91184e-10
-1.25973e-10
9.41965e-12
2.63199e-11
-1.48796e-13
1.92025e-11
6.94441e-11
-1.73352e-09
-5.59607e-07
-1.09258e-06
-1.06064e-06
-1.16416e-06
9.14311e-08
2.4277e-11
-3.29272e-13
-3.09257e-12
4.19455e-11
-6.70748e-07
-1.33706
-1.64883
-1.65331
-1.64346
-0.00205286
9.60442e-08
-2.41423e-13
1.44536e-12
1.06826e-08
0.0434077
3.94909e-05
1.89755e-12
-2.44587e-11
4.41848e-09
0.00121701
3.26031e-06
3.2684e-13
-1.06075e-12
-6.35634e-10
8.60329e-05
-5.74887e-07
-5.56714e-13
-1.96458e-12
-9.92442e-09
-0.00231706
-1.33187e-05
-4.67783e-13
5.15302e-13
9.93416e-10
0.00181826
4.88384e-06
1.22476e-13
3.21e-13
-2.38677e-13
2.11835e-07
0.00191189
0.00241015
0.00241859
0.00237507
-0.000113284
9.90502e-10
-6.25965e-13
-2.97522e-13
-1.4863e-13
3.01641e-11
1.56569e-10
1.82629e-10
2.04864e-10
1.5497e-10
1.17713e-12
-6.83802e-12
2.97578e-13
2.97648e-13
-4.21013e-11
1.72386e-11
-1.58227e-10
-2.01597e-10
-2.21804e-10
-1.62359e-10
3.87307e-11
-3.03508e-11
1.48866e-13
-2.52307e-11
-4.1164e-11
1.2051e-10
-5.56471e-07
-1.09572e-06
-1.05643e-06
-1.16237e-06
9.11859e-08
-3.08733e-11
1.82588e-13
-3.51747e-13
2.19773e-11
-5.92363e-07
-1.33705
-1.64895
-1.6535
-1.64369
-0.00199339
9.60392e-08
-1.00647e-13
6.37838e-12
1.08756e-08
0.0433443
3.94681e-05
1.20742e-12
1.56483e-13
4.50666e-09
0.0012168
3.2044e-06
3.98818e-13
1.92067e-11
-6.50659e-10
8.60564e-05
-7.39288e-07
-5.77471e-13
-1.4551e-12
-9.96196e-09
-0.00231694
-1.82359e-05
-1.84e-12
1.09339e-13
1.07688e-09
0.0018286
1.93585e-06
1.00714e-14
-2.35481e-13
2.71196e-13
2.07187e-07
0.00191253
0.00241119
0.0024196
0.00237604
-0.000113272
7.19724e-10
1.50958e-13
1.48836e-13
-2.02249e-11
-1.1042e-11
1.41568e-10
1.77414e-10
2.10211e-10
1.64946e-10
8.24496e-12
7.58531e-12
-1.48862e-13
-2.65008e-11
2.53e-12
1.0172e-11
-1.96076e-10
-2.49803e-10
-2.04775e-10
-2.06605e-10
2.79979e-12
1.48838e-13
0
-4.80662e-11
-4.10897e-13
9.20395e-11
-5.74951e-07
-1.12359e-06
-1.0916e-06
-1.19037e-06
9.1146e-08
-9.24117e-13
5.1934e-13
2.00749e-11
2.72861e-11
-5.79312e-07
-1.33653
-1.64787
-1.65231
-1.64256
-0.00206247
9.59052e-08
2.00554e-13
2.28357e-11
1.10876e-08
0.0433289
3.91457e-05
1.40079e-12
3.50961e-13
4.35239e-09
0.00121604
3.12225e-06
-1.97113e-11
-5.77477e-13
-5.67543e-10
8.62722e-05
-7.15135e-07
-3.41921e-11
-2.13334e-11
-9.90883e-09
-0.00231571
-1.45861e-05
1.90392e-11
8.63734e-14
1.06762e-09
0.00181883
1.08213e-05
3.39947e-11
-1.32506e-14
4.24295e-11
2.09802e-07
0.00191049
0.00240545
0.00241361
0.00237131
-0.000112654
2.63648e-11
-1.33015e-13
1.48893e-13
-5.95071e-12
3.68293e-11
1.5831e-10
2.13285e-10
2.32385e-10
1.65434e-10
-7.36613e-13
3.58581e-11
0
0
7.44302e-13
-1.06216e-11
-2.63837e-11
-4.10827e-11
-1.98866e-11
-1.76323e-11
-5.0145e-12
6.55086e-12
1.4896e-13
2.12154e-14
1.10269e-13
8.93456e-11
-3.64021e-07
-4.32953e-07
-3.91667e-07
-5.15568e-07
8.06527e-08
4.07022e-13
-3.27697e-13
1.89801e-11
5.80151e-11
-5.58388e-07
-1.31498
-1.6002
-1.60365
-1.59628
-0.0031843
8.48231e-08
-6.73298e-13
4.47837e-13
5.99686e-09
0.0365841
2.76918e-05
2.69771e-13
-1.9023e-11
1.37633e-09
0.000949844
1.98318e-06
4.32412e-13
-2.38426e-11
-1.4921e-10
8.31804e-05
-3.46936e-07
2.19287e-13
5.49445e-14
-3.62279e-09
-0.00163799
-7.91537e-06
-5.26559e-13
2.32922e-11
7.72192e-10
0.00179993
3.71212e-06
-8.5845e-14
-2.04025e-13
1.10646e-12
1.91995e-07
0.00165943
0.00187692
0.00188065
0.00186955
-9.83687e-05
8.6247e-10
1.1075e-13
-1.4893e-13
2.97625e-13
1.12056e-11
-1.39869e-11
1.19009e-11
1.49489e-11
1.19473e-11
-4.0401e-11
-2.9768e-13
0
5.80876e-12
3.12626e-11
2.94997e-13
6.4126e-12
-7.5485e-12
7.25806e-12
-5.29001e-11
0
1.93559e-12
1.48968e-13
-2.04153e-11
3.86898e-11
2.60643e-11
2.71828e-09
2.67758e-09
2.70455e-09
2.64188e-09
8.29799e-10
-3.01098e-12
2.81842e-13
-2.52407e-11
-2.08361e-12
-4.1561e-07
-0.000804944
-0.000830363
-0.00083158
-0.000829513
-0.000749657
2.28903e-09
1.8824e-11
1.58515e-13
1.9957e-11
5.98294e-06
-2.40581e-08
2.14432e-13
-3.45508e-13
-6.00757e-11
2.11051e-07
-1.78249e-09
-1.95513e-11
-2.12197e-11
4.0342e-11
-3.10063e-08
2.4167e-10
-3.95901e-13
6.89698e-13
-2.41788e-11
-3.06968e-07
6.35563e-09
9.47757e-14
2.11258e-11
2.68058e-11
-2.53888e-05
3.73163e-08
8.03666e-13
-3.15902e-13
8.38925e-12
6.96544e-08
-2.54138e-06
-2.66474e-06
-2.67256e-06
-2.63584e-06
-1.3594e-06
3.13159e-11
5.60191e-13
1.48953e-13
-1.63712e-12
2.80159e-12
-1.45706e-12
2.9028e-13
-1.64008e-11
-1.45704e-13
8.84729e-12
0
1.48964e-13
-4.46831e-13
0
0
-8.72492e-13
-3.45915e-11
-4.50127e-11
6.54384e-12
-2.19621e-11
1.16122e-11
1.19166e-12
1.56957e-14
2.98138e-13
-4.24878e-11
-2.92748e-13
-4.07216e-11
-6.15713e-12
-3.6571e-11
-2.99339e-11
2.68775e-11
1.01849e-12
6.48372e-13
0
1.83595e-12
3.09747e-14
-5.11721e-13
2.26124e-13
5.15596e-11
-3.22077e-11
9.04016e-13
-2.31636e-11
2.73427e-11
4.53741e-11
9.84267e-11
-5.8816e-13
-7.72034e-13
-1.88391e-13
-8.31984e-11
-1.12023e-13
-2.62492e-13
2.28261e-11
-2.69784e-11
3.78213e-11
-1.63952e-14
-5.38411e-11
-2.2614e-11
2.97388e-11
2.92563e-13
-4.91446e-13
5.3227e-11
-2.04838e-11
-4.51957e-13
-4.64852e-11
-1.66143e-10
8.77553e-13
2.34962e-11
-2.96896e-11
4.65877e-11
-1.75589e-11
2.17587e-13
1.90887e-11
1.46546e-12
2.68833e-11
-7.31297e-14
5.84499e-11
2.08844e-11
1.48945e-13
7.73848e-12
-1.47362e-13
0
6.51223e-12
7.81459e-12
6.97879e-12
-7.36742e-13
-4.47984e-11
0
0
7.56105e-11
-6.77665e-12
-7.1183e-12
2.54394e-11
-1.76343e-11
-1.01694e-11
8.84017e-13
-1.16105e-11
2.97885e-13
-4.99889e-14
5.57576e-11
4.32877e-13
2.92689e-13
2.66484e-11
-1.81712e-11
0
4.68765e-11
2.38948e-11
5.85606e-14
-6.84649e-14
5.95729e-12
-9.79576e-11
-9.63239e-11
-2.6423e-11
3.30857e-11
2.17858e-11
-6.51004e-11
3.10117e-12
-3.5961e-13
-9.57478e-14
-2.92689e-13
0
1.6955e-11
-2.70807e-13
1.22089e-13
0
9.02361e-11
2.26394e-13
1.12064e-13
-6.7328e-13
0
-9.33485e-11
8.85716e-14
2.04513e-11
9.7605e-14
-5.55649e-12
-5.888e-13
5.39123e-11
-2.93265e-11
2.10346e-11
5.88468e-12
1.18378e-12
-5.47927e-11
-2.04562e-11
2.07903e-11
-4.18142e-12
0
1.17605e-11
2.1968e-13
1.4896e-11
8.09544e-12
-1.442e-11
0
2.9066e-11
1.48933e-13
-5.65455e-12
-3.03446e-11
0
2.51473e-11
1.67649e-11
-4.35757e-13
-5.1552e-12
-6.99414e-12
5.95761e-13
5.95711e-13
7.73925e-12
0
7.40731e-12
1.08378e-11
-6.35821e-12
-4.35738e-13
-2.01819e-11
-3.48282e-11
2.68077e-11
8.98754e-13
6.26811e-13
-4.26482e-13
-4.44955e-13
1.25944e-11
-2.93136e-13
-5.84976e-13
-2.75792e-11
-3.61434e-11
3.86229e-13
-3.00012e-13
0
-9.06247e-11
-7.78686e-13
1.29002e-12
1.18199e-12
1.17784e-12
5.67479e-11
-3.01977e-13
-1.03074e-11
-2.15977e-11
-2.22964e-14
-4.64954e-12
4.61041e-13
-3.86462e-13
-7.59154e-14
-4.15879e-11
-2.94955e-12
3.79719e-13
-1.64872e-11
2.15201e-11
4.1037e-11
-8.80575e-11
4.63153e-14
2.15877e-11
-3.23955e-13
8.77467e-13
1.76675e-12
1.62739e-12
-1.37291e-13
2.34139e-11
-8.82665e-13
-1.19298e-10
-8.78454e-13
-2.12715e-11
1.05808e-13
1.7623e-11
8.18602e-13
7.3399e-12
-4.39619e-13
5.13916e-12
-2.07941e-11
-7.02853e-12
-3.68929e-11
2.87424e-13
-2.33818e-11
-1.27964e-11
7.06928e-12
5.80911e-13
-8.66938e-12
-5.20161e-12
-2.49787e-11
2.35647e-11
1.48804e-12
4.46789e-13
2.82973e-12
4.46497e-13
1.47319e-13
9.15303e-12
-3.64299e-11
4.33689e-13
-1.58361e-11
6.48208e-12
5.06036e-12
-2.29364e-11
-2.64414e-11
2.80355e-12
-4.19483e-13
1.60924e-13
-3.59945e-11
1.39769e-11
3.27543e-11
-1.50214e-11
1.70878e-13
-2.32918e-11
1.88912e-12
-2.08499e-12
8.05447e-11
6.6968e-13
1.13596e-11
-1.77289e-12
-6.18332e-11
5.35816e-11
0
-6.76014e-14
2.91952e-11
-7.53629e-13
5.81142e-13
4.81471e-13
-1.21433e-13
2.85437e-11
1.44899e-13
2.35958e-12
-4.11992e-11
-2.03203e-13
-4.86608e-13
9.11411e-13
-1.77288e-11
3.97012e-11
3.79172e-13
-2.98799e-11
-1.16978e-12
0
-3.66993e-13
1.88402e-11
-2.14985e-11
7.17837e-11
2.79985e-12
-4.23168e-11
-1.99384e-11
-3.84975e-13
-7.15237e-11
-4.7214e-11
-1.38801e-11
1.27462e-11
2.28998e-11
-4.25994e-11
3.20637e-11
4.4447e-11
-1.86364e-11
2.14461e-11
-1.0416e-11
0
-3.19582e-11
-1.44546e-13
4.77005e-11
1.45267e-13
1.4729e-13
2.08327e-12
1.95105e-11
2.15964e-11
1.48844e-11
1.47385e-13
5.52795e-12
1.1441e-11
7.9652e-12
2.03656e-12
5.45315e-12
0
-3.73864e-11
-2.03871e-11
-1.40099e-11
1.65634e-12
-1.05675e-12
-1.42812e-11
2.93072e-13
1.8621e-12
-1.10494e-11
-1.40331e-11
-2.04045e-11
-2.08298e-11
-2.38193e-12
-3.51429e-12
-9.21145e-13
3.17723e-13
0
5.88424e-13
-2.73559e-11
-3.01753e-13
1.69477e-11
2.07681e-11
9.11151e-13
-8.59611e-11
-4.57179e-13
-1.12354e-13
1.36889e-13
6.76015e-13
-8.19249e-11
2.35692e-13
-3.7199e-13
2.02359e-11
-2.93069e-13
0
9.34754e-14
1.3364e-13
-2.80704e-13
-5.295e-11
-8.7079e-11
-7.96918e-15
2.49446e-13
4.94246e-13
5.20558e-11
1.59713e-12
2.59645e-12
-3.32744e-13
4.9615e-14
7.6055e-13
-1.15273e-12
-1.45191e-11
1.11191e-11
4.25084e-12
1.37708e-11
1.39688e-11
-1.78199e-13
-8.45575e-14
-2.05548e-11
5.71429e-11
7.51508e-12
-6.109e-12
-3.82284e-11
3.18569e-12
-6.39973e-12
7.80969e-12
4.15204e-11
2.97897e-13
0
0
1.75551e-11
2.42022e-11
-6.97141e-12
-1.39424e-11
1.03503e-11
2.95014e-13
8.63589e-12
1.48985e-13
1.91777e-13
-9.29157e-13
4.17988e-13
3.21097e-11
-1.2669e-12
-3.86226e-12
6.80529e-13
-3.27684e-13
4.22636e-11
1.40427e-13
1.58409e-14
8.92868e-13
-1.3221e-12
5.0475e-11
4.28601e-11
2.36659e-12
-3.72409e-11
-3.22367e-11
-4.2749e-11
-4.63744e-14
1.0633e-13
-7.92964e-13
8.73132e-11
2.90615e-13
-2.185e-13
-2.88057e-13
5.34849e-11
-6.39307e-13
-7.41529e-13
1.26746e-13
-8.22548e-15
-5.34089e-11
0
-3.92374e-11
3.68727e-15
-3.26571e-13
-4.18674e-14
-7.39288e-11
3.9863e-11
-1.2698e-13
-7.63487e-14
2.86766e-13
-2.92666e-12
1.02164e-11
-1.94715e-11
9.75346e-14
5.31953e-12
6.03348e-13
-1.38977e-12
2.7194e-11
3.32217e-11
-4.04504e-11
-4.32467e-11
-9.80016e-12
-4.79082e-13
-1.4898e-13
-1.042e-12
1.4749e-13
0
-1.45213e-13
0
4.37264e-11
3.17069e-11
0
1.92191e-11
1.98124e-11
0
8.85272e-12
5.82853e-13
0
0
-7.72044e-12
-9.14541e-12
7.29719e-12
1.04302e-11
-8.92493e-12
2.32988e-13
5.18252e-11
-6.18807e-11
-5.08776e-11
5.76582e-11
4.80253e-11
5.01865e-14
-1.68772e-11
3.38188e-13
-1.95398e-11
0
-1.4976e-10
8.19065e-11
9.71194e-11
-9.39683e-12
2.48499e-11
-4.93601e-11
-1.34445e-12
-2.99732e-11
9.47403e-12
7.80204e-13
-1.23897e-13
1.88517e-12
-2.87342e-13
-6.86978e-15
-2.92675e-12
-1.12569e-11
-4.59506e-13
1.976e-11
-4.03703e-14
5.88307e-13
1.35642e-12
-6.23697e-11
-2.08626e-11
-3.81224e-14
1.48784e-12
-1.00813e-10
7.39384e-11
-1.03839e-13
6.39556e-14
1.42791e-13
-1.05827e-12
-1.19243e-11
2.055e-11
4.43511e-13
-3.90184e-15
-5.99074e-11
1.38587e-12
2.96296e-11
1.24777e-11
-2.2027e-13
1.43526e-11
6.51359e-13
1.53344e-13
4.47002e-13
-5.50875e-11
5.89902e-12
7.42814e-12
0
0
9.6123e-12
-9.88004e-12
-4.57069e-11
4.47002e-13
0
7.89118e-12
7.66833e-12
9.30909e-12
2.89397e-13
-5.78735e-13
7.7055e-12
1.03179e-12
-8.93382e-13
-2.74147e-11
-5.18751e-14
2.98173e-13
2.5138e-13
-4.86975e-11
-8.78508e-13
-4.10324e-11
-5.55736e-11
5.95878e-11
-2.98717e-13
-2.10659e-11
3.22345e-14
1.99563e-11
-6.83869e-14
6.45916e-11
1.36005e-10
1.0026e-10
7.17272e-11
-4.74989e-12
3.64139e-12
1.76789e-12
-5.82803e-13
-1.76547e-11
-1.2105e-10
-2.78789e-11
2.07065e-11
-1.06166e-13
-1.17123e-12
0
1.01844e-13
4.23061e-12
6.77705e-13
4.13234e-11
0
-1.96036e-13
-3.68881e-12
3.39584e-13
-4.15133e-11
-5.87926e-13
-7.62796e-14
2.13495e-11
-2.3591e-11
2.94202e-13
8.92524e-11
-5.94304e-13
1.75184e-11
2.53217e-11
5.42877e-11
-2.08776e-11
1.52488e-12
-3.08723e-11
-3.88443e-11
3.15504e-11
4.41208e-11
5.55391e-13
2.47141e-11
4.87215e-11
1.90542e-11
3.38926e-12
2.07867e-11
1.4466e-13
0
7.4133e-12
-2.63763e-11
1.63745e-12
1.0728e-11
-5.95845e-13
4.76449e-12
-3.06681e-11
0
-1.44589e-13
-1.44574e-13
-9.7354e-12
-2.94722e-13
-9.23153e-12
0
2.1014e-12
2.06605e-11
-3.06897e-11
4.68473e-11
-3.08738e-13
-3.55753e-13
1.43826e-13
-4.73833e-11
6.67859e-11
-9.25989e-13
8.29288e-13
-9.6506e-11
1.22764e-12
-2.16727e-11
-1.28567e-10
3.36816e-11
-1.23658e-11
6.75544e-11
-4.68035e-11
2.61122e-11
-2.35364e-12
5.20004e-11
-4.0583e-12
1.25226e-12
1.29679e-12
-1.13496e-13
-4.41794e-13
0
-6.59616e-13
-2.60825e-11
2.89394e-14
-5.16952e-14
1.06361e-11
5.27301e-13
-5.60026e-12
-5.67556e-14
-3.2345e-13
0
-6.22859e-13
-7.83249e-14
-1.07924e-13
5.88444e-13
-1.96238e-12
-1.25112e-12
5.33872e-12
1.93377e-14
-2.87987e-11
-5.83576e-11
-1.46079e-11
-1.02554e-12
-5.72456e-12
-1.1525e-11
-1.68376e-12
-4.8775e-13
4.12129e-13
0
-8.3362e-12
2.60772e-11
-3.64657e-11
-7.51661e-12
-4.3364e-12
-7.99025e-12
-4.15457e-11
-2.88784e-11
0
0
-5.80848e-12
-9.29175e-12
3.2289e-11
-1.83728e-11
2.63268e-11
5.98943e-11
-1.20882e-11
5.95772e-13
2.38492e-12
3.18183e-13
1.13231e-12
5.6516e-11
3.21458e-11
-3.80116e-11
3.87028e-11
5.96511e-11
1.77791e-13
-1.90153e-11
-4.21554e-11
3.05986e-12
-8.93624e-13
-5.11323e-11
1.02356e-12
2.53628e-11
0
0
2.56345e-11
1.96293e-11
-2.41348e-11
-5.52248e-13
-1.52555e-13
1.39153e-11
-4.24256e-11
2.06017e-11
-2.68388e-12
-6.4169e-13
3.00815e-11
4.23792e-11
4.51704e-13
4.26714e-13
1.23313e-12
-5.90941e-13
-3.83583e-11
5.38173e-14
-3.36157e-13
-1.38626e-12
0
3.88498e-11
-2.03986e-11
-3.57359e-11
0
-1.00374e-12
-2.92777e-13
-2.09897e-13
1.72886e-13
1.58935e-13
1.3231e-11
-1.70063e-11
-4.39568e-13
-3.53801e-11
-8.41818e-11
1.77895e-11
-4.38118e-13
2.04107e-11
3.57735e-11
-1.34019e-11
-1.47386e-13
1.45353e-13
-1.44632e-13
6.36375e-12
9.15712e-12
7.95856e-12
7.29643e-12
1.49064e-13
0
-7.45265e-13
1.34385e-11
4.27122e-11
3.38045e-11
-1.4507e-13
-1.45719e-11
2.62781e-11
5.99242e-11
2.37167e-11
-2.7838e-11
4.54917e-11
2.09466e-14
3.25804e-11
8.03728e-11
1.65207e-12
-5.2516e-11
2.63518e-11
4.4143e-11
2.36852e-11
1.91885e-11
-4.6752e-11
-3.58591e-13
-1.00288e-12
-7.99915e-11
-9.18257e-13
6.72745e-11
1.58398e-12
-4.94991e-11
-1.93543e-11
5.37231e-11
-4.32745e-13
4.05832e-12
4.77219e-11
3.1873e-14
-1.46205e-13
9.3491e-13
1.17918e-12
-3.12004e-13
1.96743e-11
-2.5767e-11
-3.52082e-13
1.92614e-10
-1.33869e-14
3.70033e-13
-3.92603e-11
-2.94245e-13
3.31117e-13
-2.16329e-13
-1.45153e-13
7.72693e-14
8.82672e-13
3.4199e-12
-6.17117e-14
-3.93889e-13
-3.83854e-12
-4.75938e-11
-3.6611e-11
3.89206e-11
6.58537e-13
-1.39278e-12
-2.91481e-13
-2.26798e-12
2.334e-13
-1.46378e-12
-2.38657e-11
4.63521e-11
1.63839e-11
4.41476e-11
0
-2.87206e-11
3.13261e-11
5.31359e-12
-6.70687e-12
-1.6409e-12
0
5.97099e-13
-2.07518e-12
-6.75421e-12
5.85517e-13
0
1.46796e-13
-3.29013e-11
-3.38876e-11
-1.95555e-11
-3.55409e-11
-1.76671e-11
-6.81633e-12
1.24332e-11
1.8408e-13
5.38032e-13
5.55143e-11
-8.94496e-11
-7.84163e-11
6.37306e-13
-9.1515e-13
-2.98124e-13
1.27157e-10
-1.62446e-12
3.7374e-11
1.45265e-12
-7.29489e-11
1.00844e-10
5.15662e-11
2.00846e-11
1.62644e-11
-4.33961e-11
0
-4.4444e-11
4.51523e-14
-8.16115e-14
-6.73154e-13
3.37251e-12
4.47415e-11
2.10165e-13
-4.25694e-12
4.91899e-11
-5.82629e-13
3.93394e-13
-2.50151e-14
-2.92651e-11
-6.62613e-12
4.64463e-13
-3.99389e-11
1.23867e-13
4.19849e-12
2.65136e-12
-9.29149e-13
4.2195e-11
-7.67151e-15
2.95252e-11
-7.6902e-13
9.02572e-12
-1.62489e-11
-4.33911e-11
-6.07259e-12
3.20278e-12
-8.7655e-13
-3.89536e-11
-1.16249e-13
1.89583e-11
0
0
-1.68797e-11
5.85444e-13
1.46363e-13
-1.46785e-13
-2.50432e-11
-1.73158e-11
1.49303e-13
-2.16358e-11
-1.68733e-11
-1.3396e-12
2.96481e-13
1.48086e-13
-1.48081e-13
-6.52217e-12
-5.95344e-13
0
1.49223e-13
-3.40603e-15
1.46021e-11
-1.34028e-12
3.88752e-11
4.5789e-14
9.18879e-13
-1.10332e-14
-6.26871e-14
-5.20911e-11
8.14836e-14
2.18589e-11
-4.06345e-11
2.23446e-12
-7.47591e-11
1.28272e-10
-5.04821e-11
5.34029e-11
2.42152e-11
6.96615e-11
-1.49964e-13
7.00928e-13
4.12858e-11
2.29178e-12
2.52753e-12
-2.79338e-13
-4.00822e-13
-6.34313e-11
8.78681e-13
-4.02751e-11
7.78206e-14
-6.51675e-13
6.26845e-11
-1.42182e-13
1.3944e-12
6.2678e-14
-2.65479e-11
3.86307e-13
-3.28963e-12
-1.39448e-12
-2.30845e-13
7.58341e-14
-5.92984e-13
-9.61419e-11
7.38953e-13
1.9456e-11
2.38864e-11
1.12131e-12
4.07404e-11
-2.01651e-11
1.90376e-11
-1.91948e-13
-3.11757e-12
-1.50744e-11
1.92876e-13
-2.81498e-13
-2.686e-12
-4.68779e-11
7.73764e-12
-2.51958e-12
0
-1.48084e-13
-6.81832e-12
7.44113e-12
0
-1.92543e-11
1.96518e-11
8.93367e-13
-5.9451e-13
-1.03854e-12
-7.26696e-12
4.44918e-13
9.49489e-12
-6.06362e-11
-2.97762e-13
-2.97756e-13
1.99271e-11
4.21434e-13
-3.59193e-12
-1.54854e-12
1.39932e-11
4.5261e-11
-3.96705e-11
2.35527e-12
-3.85327e-11
-3.43205e-13
1.86493e-11
-2.97143e-13
-4.6622e-11
2.0813e-11
5.56962e-12
-6.07671e-11
1.9488e-11
-4.95668e-11
-1.33737e-11
4.20603e-13
1.99251e-11
0
5.07054e-11
-1.39774e-11
-1.0369e-12
-2.11734e-11
1.92166e-12
1.81123e-12
7.68914e-11
1.9784e-13
-1.91744e-11
1.18708e-12
1.49711e-11
1.44475e-12
1.46139e-12
-5.20745e-11
9.3616e-13
1.12653e-11
-2.43128e-11
1.02264e-13
-1.96536e-11
-8.90667e-13
1.22375e-12
5.93048e-11
-1.02572e-12
9.34842e-12
-1.87869e-12
-2.33843e-11
-7.35654e-13
-2.51548e-13
1.49467e-13
-2.96549e-13
1.11687e-12
-5.9961e-11
7.9182e-13
3.78047e-11
4.13652e-13
8.3777e-11
-6.24004e-11
-4.03127e-13
3.49184e-11
-1.34249e-12
-5.49746e-11
3.3222e-11
-3.28846e-11
1.1074e-12
-7.8943e-13
1.73117e-10
6.25706e-11
1.10286e-13
-4.66824e-13
1.01671e-11
-4.60218e-13
2.81856e-13
4.97936e-11
-6.34603e-11
4.17582e-11
-4.32774e-11
7.56001e-15
-6.78482e-13
-3.4836e-11
-7.1453e-12
9.95442e-12
1.48327e-13
3.06956e-11
-4.44888e-13
2.87793e-11
5.94417e-13
0
-5.95625e-13
5.93864e-13
2.24057e-11
-1.48185e-13
-2.11683e-11
-3.19656e-11
0
-5.44729e-11
-2.04487e-11
4.45133e-12
-5.34476e-12
4.8046e-13
-6.341e-14
8.58768e-12
-7.74498e-13
1.11779e-11
-6.86176e-12
-1.55272e-11
-1.18916e-11
-2.27704e-11
1.04329e-13
3.02717e-14
-2.23026e-11
8.558e-12
2.80245e-11
4.28899e-11
9.93094e-13
3.7511e-11
-3.6288e-13
-3.41553e-11
4.95948e-12
1.51131e-13
1.16416e-11
-2.34945e-12
5.86976e-13
1.1537e-14
-1.33694e-12
7.981e-13
1.5297e-13
8.11319e-12
1.39477e-14
-6.28771e-14
1.96979e-11
-7.34971e-12
-2.95359e-13
3.02858e-11
-5.76139e-12
-1.63871e-11
4.81988e-13
-7.6786e-12
-2.09412e-11
2.28315e-11
1.06463e-11
1.17642e-12
0
6.89351e-12
1.33362e-13
3.31192e-13
4.94164e-11
-3.07713e-11
1.3792e-13
-3.24779e-13
-1.00524e-12
-2.85036e-11
2.94651e-13
-3.08911e-11
-7.56435e-12
-3.68614e-14
-4.88276e-11
7.44056e-12
1.48533e-12
-2.25831e-11
-2.27483e-11
2.90249e-11
-3.72179e-11
-3.60368e-11
1.34167e-11
-7.73914e-13
2.02503e-12
2.99077e-11
-9.39929e-14
1.22364e-13
-1.84189e-11
-4.29313e-11
5.79737e-12
3.32748e-11
2.2504e-12
1.84409e-13
6.97991e-12
-3.04178e-13
1.93219e-11
-1.48459e-13
2.96745e-13
1.45252e-11
0
2.30818e-11
4.43896e-13
-5.92016e-13
-2.25208e-11
0
0
-1.86737e-11
2.45895e-11
1.03614e-12
-1.47941e-13
0
-9.17102e-12
-1.18353e-12
1.82061e-11
0
0
-1.64958e-11
8.94869e-13
-2.1287e-11
-3.49488e-13
8.30587e-14
-8.92144e-12
-6.34885e-15
4.38013e-11
2.55914e-11
2.35427e-12
1.90527e-11
6.70308e-12
-1.58865e-13
-4.81283e-13
-3.43486e-12
1.74227e-13
1.03763e-12
2.24248e-11
2.58728e-13
1.66749e-13
1.71738e-11
-7.17228e-13
5.23998e-11
1.34776e-13
-9.6874e-14
-5.58066e-14
-1.73728e-13
-6.87759e-13
-2.67893e-11
-4.96096e-12
1.19052e-13
-5.54753e-11
-1.36331e-13
1.39747e-13
3.63174e-12
2.10055e-14
7.60959e-14
-2.36292e-11
9.89314e-14
-4.09776e-13
2.73883e-11
4.61576e-13
-3.14177e-11
1.95586e-11
-2.92487e-13
-2.0197e-13
6.65012e-13
-4.57521e-11
8.79805e-13
2.94474e-12
2.59831e-13
2.43583e-11
1.63967e-13
1.86935e-11
-3.75713e-13
-2.13106e-11
1.05187e-13
1.225e-12
1.38761e-13
-1.83623e-11
-2.7143e-11
-3.9449e-13
2.44482e-13
-1.92912e-11
1.0301e-13
9.70545e-14
2.21664e-11
2.10219e-11
-5.01998e-13
1.73678e-13
-2.16387e-11
-2.61971e-11
-3.72826e-13
-1.88469e-11
8.46802e-14
2.08551e-11
-9.06871e-14
-1.1453e-13
-5.09729e-14
1.8442e-11
-2.07475e-11
-2.63649e-11
0
2.95826e-13
-2.95764e-13
-4.43633e-13
-2.26291e-11
1.47991e-13
1.48111e-13
1.482e-13
3.10918e-11
2.97507e-11
-4.43868e-13
2.41102e-11
-7.39513e-12
-5.916e-13
0
2.95897e-13
-2.07211e-11
1.82103e-11
4.13622e-13
-2.47634e-13
-5.65023e-14
2.39325e-11
-7.50655e-12
-9.13914e-14
-2.54453e-14
-1.18156e-13
-2.11785e-11
2.00514e-11
-3.09461e-11
-2.00479e-11
1.06878e-12
-4.17138e-14
-3.72776e-13
4.45382e-13
4.89255e-14
-5.92265e-13
-6.42324e-13
-1.84069e-11
-6.0524e-13
1.18567e-13
1.09695e-14
-4.26668e-14
8.56719e-14
-1.80898e-11
-2.12926e-14
1.44624e-13
7.71734e-14
-2.50096e-11
-5.97316e-13
-6.75062e-12
-2.1885e-11
3.86099e-14
6.61987e-13
-1.93668e-11
-7.51756e-14
-3.40379e-13
-1.33385e-13
-1.55471e-13
1.93913e-11
-1.37948e-13
-5.10014e-13
-3.64691e-13
2.76372e-13
1.81734e-11
2.28632e-11
1.93192e-11
-2.15491e-11
5.03948e-12
6.32286e-13
-2.80685e-12
2.04681e-11
-2.5132e-13
-5.51712e-14
1.94614e-11
1.73181e-15
8.12326e-13
1.36594e-13
3.20039e-13
-1.95459e-11
2.53126e-13
5.32502e-13
3.52083e-14
-2.11619e-11
5.23838e-14
-2.23922e-11
-1.96087e-11
2.12002e-11
-1.76623e-13
1.70432e-12
1.02587e-11
-1.88909e-11
3.57253e-15
8.84546e-13
2.62225e-11
1.98501e-11
-2.14363e-13
-2.82533e-14
-2.26493e-13
1.33241e-12
1.0064e-11
-1.92314e-11
5.9153e-13
2.17356e-11
2.63187e-11
1.93716e-11
1.47923e-13
-1.47988e-13
0
4.4393e-13
0
-7.1004e-12
2.95805e-13
0
2.02613e-11
-7.39494e-13
-2.73648e-11
1.47947e-13
0
2.26365e-11
5.55231e-13
-7.28928e-12
-6.69148e-13
-3.32655e-13
2.04781e-11
-3.35816e-13
-5.18633e-11
-4.45224e-14
1.76646e-13
1.33199e-13
1.95463e-13
2.70166e-11
2.35238e-13
9.34324e-13
-4.73679e-14
-8.01384e-15
-5.00958e-13
5.61772e-14
2.54634e-14
-2.23047e-11
-1.01444e-12
-1.66877e-13
5.82591e-13
6.27071e-13
2.24864e-11
-1.42534e-13
2.42159e-11
-2.78153e-11
-2.53838e-11
-1.20668e-11
2.44375e-13
-4.65562e-11
-3.18823e-13
-9.35203e-13
3.41905e-13
4.30849e-13
-4.55448e-14
-2.40166e-13
-1.26809e-13
2.2606e-11
3.67536e-13
-2.56028e-11
7.04214e-16
-3.42932e-13
-2.22829e-11
-9.93853e-14
1.74519e-13
1.32867e-12
2.51934e-11
1.20302e-11
-1.17005e-13
-7.82695e-12
-2.38873e-11
-4.05575e-13
-6.60974e-13
-9.71358e-14
2.13981e-13
-4.15586e-13
1.09383e-13
-1.58721e-12
-1.84754e-13
2.51889e-11
2.12055e-13
-5.24107e-14
-1.85091e-13
5.03814e-14
-2.4834e-11
2.64915e-11
0
-3.34191e-14
1.14084e-13
2.73906e-11
2.40091e-11
1.86409e-13
1.34444e-14
6.78728e-14
-2.18121e-13
5.91572e-13
-1.88145e-13
-2.10117e-11
-1.4794e-13
1.47902e-13
1.47874e-13
1.4786e-13
-4.43571e-13
2.95733e-13
2.49935e-11
0
-2.95913e-13
-5.91721e-13
2.10041e-11
0
-2.07047e-12
0
0
1.47884e-13
-1.47893e-13
-1.47911e-13
0
-5.91666e-13
4.08218e-11
1.47891e-13
0
2.64712e-11
5.91526e-13
2.39562e-11
-1.3309e-12
1.47892e-13
2.49958e-11
0
5.9156e-13
-2.04079e-11
2.07045e-12
2.95796e-13
7.39469e-13
0
-2.35113e-11
1.183e-11
0
0
-1.98163e-11
0
0
-2.72186e-11
-4.43762e-13
-2.38108e-11
7.39339e-13
1.47861e-13
-2.49896e-11
0
-2.95763e-13
2.04097e-11
-3.84607e-12
-1.47952e-13
-4.43834e-13
1.77489e-12
4.46569e-11
-1.18284e-11
0
2.95759e-13
-7.39385e-13
-2.76557e-11
-1.4792e-12
-2.29312e-11
1.47937e-13
2.45514e-11
0
-1.47849e-13
1.47854e-13
1.47881e-13
-2.09979e-11
-2.15898e-11
1.03524e-12
0
-1.47898e-13
-1.33084e-12
-2.15859e-11
0
0
0
-1.62666e-12
2.79467e-11
1.47864e-12
2.42501e-11
-1.47861e-13
-7.39231e-13
0
2.86833e-11
2.27719e-11
-4.43717e-13
2.15917e-11
2.15893e-11
2.51361e-12
-1.47851e-13
1.47845e-13