/*--------------------------------*- C++ -*----------------------------------*\
  =========                 |
  \\      /  F ield         | OpenFOAM: The Open Source CFD Toolbox
   \\    /   O peration     | Website:  https://openfoam.org
    \\  /    A nd           | Version:  10
     \\/     M anipulation  |
\*---------------------------------------------------------------------------*/
FoamFile
{
    format      ascii;
    class       volScalarField;
    location    "1.3";
    object      gradTz;
}
// * * * * * * * * * * * * * * * * * * * * * * * * * * * * * * * * * * * * * //

dimensions      [0 -1 0 1 0 0 0];

internalField   nonuniform List<scalar> 
47104
(
5.96396e-13
7.45367e-13
4.46795e-13
-3.71779e-12
1.48558e-13
0
-1.4871e-13
-1.48928e-13
-4.47202e-13
-1.49091e-13
-2.9813e-13
-1.48935e-13
-5.6313e-11
-2.82719e-11
1.03349e-12
-1.47641e-13
1.48019e-12
2.92704e-11
-3.58921e-11
3.26437e-11
-1.66788e-11
2.9715e-13
1.0931e-11
-8.77998e-12
-1.45444e-13
-2.03621e-11
1.09749e-11
1.47714e-13
-2.97142e-13
-1.04238e-12
-3.1524e-11
-8.88062e-13
0
-1.1661e-11
-2.4509e-11
2.57914e-11
-2.87925e-13
2.7802e-12
-3.18214e-11
-3.46452e-11
2.97099e-13
0
1.33805e-11
1.28244e-12
1.40674e-13
-6.75234e-12
-2.99233e-12
0
2.95259e-13
-3.66899e-11
-3.0751e-11
0
-2.03618e-12
1.42493e-13
9.84711e-12
1.40673e-13
1.73839e-11
-1.45438e-13
-7.36682e-11
-3.1343e-11
-3.06349e-11
1.421e-11
-1.14139e-11
-3.33989e-11
3.20602e-11
5.6996e-13
0
1.39011e-11
-3.96671e-11
3.21192e-11
0
-5.94332e-13
1.52144e-11
1.03889e-11
6.86444e-11
-2.90868e-13
1.46325e-13
-4.43135e-13
1.48576e-13
-7.44609e-13
0
3.12754e-11
1.27768e-11
-7.4e-13
-4.42869e-13
-5.90501e-13
-8.88035e-13
-3.55088e-11
-1.4893e-13
-6.63345e-11
0
-2.98113e-13
-7.44526e-13
-4.4605e-13
1.48533e-13
-1.45565e-11
-3.182e-11
7.44574e-13
3.1154e-11
-1.49094e-13
5.58629e-13
8.76985e-13
4.09167e-11
2.95469e-11
-1.1265e-13
4.84061e-13
1.49226e-13
0
-5.97376e-13
-3.17536e-13
-1.91505e-14
-4.48896e-13
3.11141e-11
7.12157e-12
-2.78273e-12
-8.98628e-13
-5.81433e-11
-1.0478e-11
2.207e-11
3.25343e-11
-6.8681e-12
3.85193e-13
-2.35398e-11
-9.19344e-12
0
2.95676e-13
-6.30326e-11
5.94152e-13
-1.23175e-11
-7.46501e-13
-3.11842e-11
1.226e-11
-9.19299e-11
-2.63504e-12
2.12156e-11
-2.2939e-11
5.82403e-13
5.65669e-11
3.38136e-11
-5.96804e-13
0
2.6515e-12
-1.18314e-12
0
-7.61822e-11
-1.80868e-11
-7.26651e-11
-2.93228e-13
-1.26999e-13
1.49159e-13
-2.98352e-13
2.27941e-13
5.91341e-13
2.90365e-13
-8.44047e-11
-7.74035e-12
-1.0656e-11
6.50571e-11
-2.04543e-11
0
4.47698e-13
-5.96381e-11
2.66334e-12
5.82398e-13
-7.1511e-11
-1.0944e-11
3.96108e-11
8.80686e-13
-9.46347e-12
-4.47643e-13
0
-8.37864e-12
-8.91228e-13
-8.8384e-13
-3.63594e-11
2.93044e-13
2.93557e-13
2.95743e-13
6.74376e-12
-7.46597e-13
2.98711e-13
-1.15963e-11
-3.57291e-12
-2.74872e-11
-1.03242e-11
1.75927e-11
-9.67227e-12
-2.04566e-11
-1.37284e-11
-3.50959e-11
-1.9143e-14
-3.58571e-11
4.21e-11
1.4919e-13
-2.6184e-13
3.41743e-11
-9.13406e-13
7.46544e-13
3.12497e-11
3.82396e-14
3.31588e-11
1.32677e-13
2.39076e-12
4.18274e-12
6.18956e-14
-4.48474e-11
-5.47561e-13
4.27984e-12
4.26048e-13
1.94487e-14
-2.32477e-13
4.14756e-11
5.16916e-11
1.79438e-11
-6.05493e-11
1.49957e-12
-6.40654e-11
-4.06187e-11
4.83427e-11
-3.7933e-11
1.58708e-11
8.33537e-11
-2.84248e-10
3.90211e-10
4.26487e-10
4.13181e-10
4.83823e-10
3.28271e-10
-6.75775e-11
8.39396e-14
2.07319e-13
5.98057e-13
4.82833e-10
5.65955e-06
-1.25946e-06
-1.25254e-06
-1.47681e-06
1.739e-06
3.25311e-11
8.13098e-13
-4.10689e-13
0
4.02733e-10
-1.26269e-06
-3.85009e-05
-3.94295e-05
-3.46215e-05
2.30529e-06
9.74252e-11
3.65276e-11
-3.51896e-12
-5.99818e-13
4.43975e-10
-1.25303e-06
-3.94295e-05
-4.04248e-05
-3.534e-05
2.33512e-06
1.27218e-10
3.10061e-11
3.11328e-11
-3.05366e-11
4.75324e-10
-1.47552e-06
-3.46218e-05
-3.53403e-05
-3.15359e-05
2.22529e-06
7.85054e-11
-3.18306e-11
3.01325e-11
7.55661e-11
3.17374e-10
1.73895e-06
2.30539e-06
2.33514e-06
2.22521e-06
-1.05329e-07
-1.38293e-11
-3.13855e-13
1.25456e-13
-4.17799e-11
-1.08119e-11
8.79495e-11
6.86789e-11
3.75581e-11
4.92143e-11
1.23256e-11
6.58062e-11
3.13473e-11
1.68665e-13
-6.23591e-13
3.56461e-11
4.10803e-13
3.08847e-11
4.79438e-11
3.16926e-11
-6.33947e-14
3.77668e-11
4.0866e-13
2.97698e-13
-3.43013e-13
-4.02762e-11
-2.90972e-11
1.2075e-12
-1.64817e-13
1.15967e-12
-3.30762e-11
3.70808e-13
0
-3.68135e-11
-7.75377e-11
-4.64313e-13
-2.38671e-10
-2.12777e-10
-2.31041e-10
-3.72993e-10
-5.44604e-11
-6.49985e-11
-4.10163e-12
-3.50036e-11
-1.52676e-11
5.41833e-08
-6.08698e-05
-5.54802e-05
-5.52644e-05
-5.57283e-05
-6.05037e-05
-2.54738e-09
-4.61046e-11
9.68953e-13
-2.10371e-10
-6.08903e-05
-224.943
-292.621
-293.251
-291.736
-2.53468
1.79332e-07
6.50343e-13
1.17311e-12
-2.34371e-10
-5.54809e-05
-292.621
-403.234
-404.702
-400.986
-4.40718
-9.72824e-09
1.93295e-12
1.08166e-12
-3.00353e-10
-5.52662e-05
-293.251
-404.702
-406.252
-402.378
-4.42576
1.56476e-08
5.08426e-11
7.27652e-13
-2.73191e-10
-5.57408e-05
-291.736
-400.986
-402.378
-398.83
-4.40304
-7.45739e-08
1.0037e-12
1.78558e-13
-1.1275e-10
-6.04217e-05
-2.53472
-4.40721
-4.42577
-4.40305
-0.998727
4.57417e-07
3.80534e-13
-4.91412e-14
2.96842e-13
-2.6324e-09
1.78303e-07
-1.03778e-08
1.38604e-08
-8.56921e-08
4.56559e-07
-6.48648e-11
-1.20261e-13
-2.97683e-13
3.57349e-11
-4.17865e-11
1.21865e-12
-2.91476e-11
6.38596e-13
4.85179e-11
-2.73114e-13
3.98272e-11
0
-3.2855e-11
2.77937e-12
-1.94863e-12
2.83393e-12
4.40007e-12
4.86995e-11
2.95014e-12
-4.22344e-12
-7.42217e-13
-1.93698e-14
-2.98405e-11
-1.48218e-12
1.88877e-12
1.41318e-08
2.97012e-08
2.98154e-08
2.80911e-08
-5.61014e-10
6.51675e-11
3.82634e-11
3.76643e-14
-6.89688e-11
-2.44288e-08
0.0177176
0.0350485
0.0352803
0.0345438
0.000157567
-2.70387e-09
3.38861e-11
2.63131e-12
1.40306e-08
0.0176869
3.51173e-05
6.02655e-12
3.91913e-12
2.95896e-08
0.0350428
5.47346e-05
3.9996e-12
3.84509e-11
2.97881e-08
0.0352719
5.5513e-05
5.8799e-12
2.74809e-12
2.69555e-08
0.0341597
5.13295e-05
3.57238e-11
3.01266e-12
-1.16318e-09
0.000151109
-9.14286e-07
-4.13577e-12
1.30598e-11
2.96305e-13
-2.43589e-09
3.50832e-05
5.47223e-05
5.54146e-05
4.87457e-05
-8.80478e-07
4.1718e-12
7.59602e-13
1.29189e-13
4.18101e-13
-3.53323e-11
3.80856e-11
-2.71425e-11
4.00415e-12
3.09325e-12
-3.44424e-14
-2.55534e-12
0
1.22841e-12
-3.58745e-13
3.24035e-13
1.06355e-12
1.02552e-12
1.18676e-12
6.33639e-13
3.33702e-11
-2.74706e-13
-1.29363e-13
3.6857e-11
0
8.38597e-13
2.79433e-09
6.75498e-09
6.84396e-09
6.19089e-09
-9.94806e-11
-2.97749e-13
3.75559e-11
-5.78567e-12
1.41068e-12
3.27143e-09
0.000712258
0.00112327
0.00109237
0.00110918
5.59516e-06
-4.80474e-10
4.60215e-11
5.95595e-13
2.62893e-09
0.000657083
2.03382e-06
6.57495e-13
1.37629e-12
6.67094e-09
0.00111541
3.53273e-06
-3.28157e-11
-4.54409e-11
6.94078e-09
0.00109512
3.68639e-06
-4.84596e-11
1.24789e-12
6.35123e-09
0.00177545
3.13859e-06
8.81552e-13
9.62779e-14
1.05961e-11
0.000877765
-6.97072e-08
4.30984e-11
3.32862e-14
2.97643e-13
-5.95239e-10
2.09443e-06
3.53787e-06
3.74108e-06
6.73729e-06
8.07687e-08
1.502e-12
2.6779e-13
-9.03989e-14
-4.06981e-11
-6.74715e-13
-3.19652e-11
6.62296e-11
3.51926e-11
-4.57564e-11
-4.37062e-12
-3.95524e-11
-1.09867e-13
-6.33856e-13
-6.58886e-11
-3.60029e-13
-1.03768e-13
-2.32479e-13
3.6424e-11
-3.11134e-11
-2.69485e-13
6.78782e-13
7.43833e-13
2.99693e-11
-2.38232e-12
2.72958e-13
6.90724e-10
1.80814e-09
1.95389e-09
1.79127e-09
-2.12052e-10
6.14549e-11
1.87704e-14
4.22813e-13
-2.04361e-13
3.70702e-09
0.000308237
0.000388042
0.000323278
0.000416571
1.26936e-06
4.08562e-12
-3.40441e-11
-3.70996e-13
-2.16416e-11
-9.00074e-05
3.032e-07
6.21013e-11
-3.96989e-13
1.3806e-09
0.000305907
5.2184e-07
1.51994e-13
5.92616e-13
1.85307e-09
0.000326729
5.538e-07
-1.13758e-12
-3.97243e-11
2.07817e-09
0.000584519
4.54987e-07
-3.27078e-11
-3.28315e-11
-2.04754e-10
4.65161e-06
-1.17047e-08
3.48201e-12
-1.30748e-11
-5.96606e-13
-5.37963e-11
3.05921e-07
5.23161e-07
5.83347e-07
9.64835e-07
-4.25788e-08
-1.50566e-12
-3.88712e-13
4.07502e-13
2.84348e-13
-3.20549e-11
-3.52339e-11
3.76265e-11
5.64507e-13
5.83233e-13
1.23396e-13
-3.48194e-11
-3.87757e-14
-5.95434e-13
4.72777e-12
-5.29432e-13
-2.21216e-13
-6.53872e-12
-7.96206e-13
-6.32781e-14
-7.55318e-13
2.27337e-13
0
9.74719e-14
4.17195e-12
-4.30619e-13
7.02314e-11
4.25407e-10
4.22804e-10
4.54021e-10
7.09821e-11
-1.23039e-10
-3.37787e-11
4.75753e-11
-6.21465e-11
4.8243e-09
0.000237946
0.000307353
0.00023666
0.000338245
-1.08505e-06
3.15686e-11
4.80802e-13
-3.51775e-13
-1.29625e-09
0.00579054
-2.23444e-08
2.46166e-13
-2.6435e-13
-4.33319e-11
-3.74521e-05
-6.44826e-08
3.29417e-11
7.86726e-11
4.38011e-10
0.000235371
-6.89593e-08
3.31473e-11
-4.27431e-13
3.87061e-10
0.000346781
-6.04321e-08
-8.25604e-13
-2.07083e-13
9.28604e-11
-9.08501e-07
2.51703e-09
-4.27525e-11
1.45828e-13
-6.27124e-12
2.35261e-11
-3.20793e-08
-6.83362e-08
-1.51856e-07
-2.73215e-06
3.08883e-08
-9.03945e-13
-3.73173e-13
-1.48836e-13
4.0157e-11
3.77324e-13
3.34348e-11
-4.14461e-11
-3.44218e-11
-5.86735e-13
4.07293e-12
-5.49092e-13
-5.9548e-13
1.48904e-13
6.3024e-11
1.9758e-13
-3.89121e-11
-1.14315e-12
-3.77074e-11
3.04389e-11
-1.54261e-14
4.29202e-11
-5.9559e-13
-4.34569e-11
-8.46538e-11
3.44897e-13
-1.06319e-09
-2.96936e-09
-3.11308e-09
-2.69899e-09
5.9669e-11
6.18269e-11
-4.78817e-13
-4.03334e-11
6.33988e-11
4.39679e-09
0.000146617
-8.40926e-05
-0.000177481
-2.84537e-05
-3.42449e-06
2.24368e-10
3.1582e-11
-3.42438e-11
3.29552e-10
-0.00172698
-1.82028e-06
8.69116e-12
-8.38191e-13
-2.54493e-09
0.000216329
-3.51657e-06
-1.08074e-12
-3.37395e-11
-3.01967e-09
-0.000170085
-3.65361e-06
-2.00494e-12
3.96e-11
-2.63901e-09
-2.66679e-05
-3.04764e-06
-3.81062e-13
3.19972e-11
7.16545e-11
-2.85373e-06
4.47784e-08
3.78513e-12
-2.14471e-13
7.76558e-11
1.96184e-10
-1.82422e-06
-3.51496e-06
-3.59424e-06
5.94299e-07
9.04511e-08
0
7.16343e-15
-2.97783e-13
7.56789e-15
3.51547e-11
4.23373e-11
-3.87188e-11
-1.0896e-12
-5.05031e-11
-4.38464e-11
-9.75179e-14
-1.48925e-13
-4.46784e-13
-4.29291e-12
2.82876e-13
3.17049e-11
5.93457e-12
2.98912e-11
2.0568e-14
-5.03234e-13
4.51377e-13
-2.97877e-13
4.38153e-13
8.40588e-11
-1.90203e-12
-3.21765e-09
-6.04381e-09
-5.75066e-09
-5.95143e-09
7.15822e-11
0
-3.56381e-12
2.73833e-13
-5.57822e-13
6.71594e-09
-0.0110686
-0.0264702
-0.0267751
-0.0259636
-9.8347e-05
1.08011e-09
-9.2875e-14
1.01762e-13
-2.60066e-09
-0.010354
-2.59075e-05
-5.43532e-13
1.1044e-13
-6.01034e-09
-0.0263745
-4.41367e-05
3.75894e-11
-3.26814e-11
-5.98547e-09
-0.0267913
-4.48469e-05
-3.2669e-11
-3.15973e-11
-6.17215e-09
-0.0259701
-4.08349e-05
-3.6894e-11
-6.75356e-17
6.6406e-11
-9.89747e-05
2.84867e-07
-1.94652e-13
-4.85821e-13
-7.078e-11
1.1984e-09
-2.59247e-05
-4.41354e-05
-4.48013e-05
-4.02949e-05
2.54473e-07
-3.01167e-13
1.87283e-13
-2.9786e-13
4.99836e-13
-1.58191e-12
3.79254e-11
-2.30973e-11
3.20236e-15
6.20953e-13
6.25427e-13
-3.21996e-14
8.9377e-13
4.57212e-11
2.79961e-11
6.46146e-13
3.79689e-11
1.29639e-12
2.73035e-14
-2.14406e-13
-5.5454e-13
-4.28369e-11
1.48955e-13
8.01714e-11
-5.96154e-13
5.76372e-13
-1.43862e-10
-1.02678e-10
-1.07744e-10
-1.08378e-10
1.5148e-11
2.08983e-12
8.54533e-13
4.01316e-11
-7.78838e-11
-2.88512e-08
0.000271968
0.000258649
0.000257798
0.000259681
0.000255397
2.11239e-10
-6.53557e-11
3.44088e-11
-7.42673e-11
0.000271773
-2.12988e-07
-4.14543e-11
-2.04683e-13
-1.16216e-10
0.000258735
-2.6059e-07
-1.61977e-13
3.27524e-11
-1.68487e-10
0.000256588
-2.61672e-07
4.45017e-13
-3.79242e-13
-8.81153e-11
0.000259777
-2.55306e-07
-3.11166e-11
-6.55216e-11
-2.90152e-13
0.000255469
2.23648e-08
-5.32751e-11
1.60083e-13
-8.41859e-11
2.01096e-10
-2.13045e-07
-2.60499e-07
-2.61502e-07
-2.54616e-07
2.28248e-08
6.02208e-13
-3.01349e-13
-7.44725e-13
-3.75172e-11
-5.22599e-11
-7.23964e-11
-1.47248e-13
-7.60859e-14
4.90548e-11
1.61242e-13
-3.13651e-11
-1.48971e-13
0
-3.80192e-11
3.19198e-11
-3.1374e-11
-3.71081e-11
-2.89608e-11
-1.30431e-11
1.68007e-12
-7.47717e-13
-1.4895e-13
1.13934e-13
-2.98101e-13
1.34533e-10
-2.92924e-13
-8.78809e-13
-7.03665e-12
-5.8512e-13
4.19222e-13
-8.48123e-11
-3.04965e-11
8.41272e-14
7.7786e-11
-1.22628e-12
1.42452e-10
1.76406e-12
-2.35599e-12
5.87198e-13
-1.29462e-10
-3.97292e-13
-5.50591e-11
5.37165e-14
-7.55579e-11
-1.52575e-10
1.76018e-12
-2.70376e-13
4.94978e-11
0
1.787e-10
-7.28352e-11
-3.7428e-11
-2.26139e-13
0
1.01345e-10
1.8079e-10
-8.70455e-13
7.75495e-11
4.35937e-11
2.89941e-10
1.31539e-11
-6.07151e-12
-1.54402e-12
1.10522e-11
1.97256e-10
-1.47941e-12
2.00479e-13
-9.21807e-12
8.42479e-11
-2.18555e-11
1.72017e-12
5.28099e-11
-6.74278e-11
-3.71964e-12
1.84843e-12
0
-3.77436e-11
1.48938e-13
2.39214e-14
1.64766e-12
-3.74742e-11
3.04635e-11
5.39268e-14
-5.34719e-13
3.82597e-11
-7.1173e-13
-1.10136e-13
-4.55641e-11
-2.8973e-11
-6.21872e-13
2.5522e-13
-1.84892e-12
-3.55708e-13
3.05805e-11
-3.1337e-11
1.78668e-13
-1.93487e-14
-3.76516e-11
5.96242e-13
-1.32511e-10
2.92849e-12
-5.85626e-13
-5.15804e-11
2.92439e-13
-2.33638e-13
1.48744e-10
-1.34053e-12
4.64956e-13
-5.18843e-13
-1.83876e-12
4.68473e-12
1.35528e-10
5.90812e-13
1.02448e-10
2.02284e-12
-1.08994e-10
3.35693e-11
-2.16813e-11
7.63961e-11
-3.21263e-13
-1.43772e-13
-4.75467e-11
9.39667e-13
-2.92816e-13
3.35618e-10
-8.01271e-12
-3.52249e-11
-7.04418e-14
-2.93059e-13
2.77652e-11
-8.43685e-11
-1.11347e-12
4.49385e-13
-4.21096e-11
-1.09502e-10
1.04814e-12
3.07324e-11
-8.33647e-12
-1.05738e-11
-3.39969e-13
8.29941e-11
4.96082e-11
8.2382e-14
6.95901e-11
8.63199e-13
3.59755e-13
-6.11586e-11
6.11843e-11
2.63107e-13
-2.27674e-12
5.10602e-13
-4.36599e-11
8.93536e-13
3.76628e-11
9.76472e-11
7.40411e-11
-4.49921e-11
3.34484e-14
-3.02225e-13
4.35563e-11
3.13503e-11
-1.23032e-12
-7.44475e-13
3.87907e-11
-3.18679e-11
5.57129e-14
3.84962e-11
2.87039e-13
1.28314e-11
-3.7978e-13
-1.50549e-11
-7.89333e-12
2.67449e-13
0
-1.1401e-12
6.99735e-11
8.43444e-11
5.97964e-11
2.92478e-13
-5.02874e-13
-6.57124e-11
3.42593e-11
1.43895e-13
-8.45924e-11
-6.12541e-13
5.41841e-12
-1.45404e-12
-1.19969e-10
-5.88924e-13
-8.88788e-11
1.08966e-10
2.36597e-11
4.13095e-11
5.85467e-13
1.13835e-12
3.93971e-13
-1.05516e-13
-1.89328e-11
0
6.45656e-13
-1.71525e-11
3.54181e-14
-4.86324e-14
-1.17243e-12
0
6.82786e-11
3.60571e-13
-4.62836e-11
-2.13497e-11
7.65549e-11
2.97038e-12
4.37606e-11
1.43223e-12
-1.37874e-12
1.41518e-10
-1.34723e-11
-7.37694e-13
9.82902e-12
-6.80928e-11
-7.27732e-13
-1.28723e-12
-7.18254e-11
-9.74743e-11
-7.4272e-12
5.03683e-14
-1.20558e-12
3.73428e-11
1.4891e-13
-2.88815e-13
-3.30691e-13
-1.49689e-12
-3.67575e-13
-4.15604e-14
6.46649e-13
-3.85174e-11
6.57213e-13
-4.30411e-11
-2.97787e-13
6.77285e-13
-2.30338e-14
-2.04199e-13
9.8125e-14
-1.94966e-13
-3.03521e-11
3.2156e-11
-1.34744e-13
-1.29578e-13
-3.54919e-13
-5.96202e-13
-3.49536e-13
-7.35176e-11
-8.72605e-11
-2.93082e-13
1.90092e-11
-7.98945e-12
5.97323e-13
7.36489e-13
-5.4033e-13
8.51951e-11
6.13985e-13
-1.06277e-13
-5.89841e-13
5.90948e-13
7.06675e-12
-1.51294e-10
2.7444e-13
-2.9278e-13
-1.21552e-11
-7.28899e-11
3.53242e-11
7.02555e-11
1.04308e-11
-8.50979e-13
1.75693e-12
-1.50078e-10
9.79176e-11
3.53976e-11
-6.0315e-14
-8.41088e-11
1.18188e-12
-6.79072e-11
-3.86991e-12
-1.41064e-13
1.95919e-11
0
-7.96465e-11
1.06727e-13
3.61764e-12
5.26996e-13
-4.04292e-12
-2.20047e-11
1.94584e-13
-5.40811e-14
-2.68862e-12
-3.27673e-13
1.06761e-12
-1.59462e-11
9.80954e-11
2.07661e-11
-2.63286e-13
-7.98705e-11
4.37555e-11
-4.4673e-13
-3.6702e-14
-4.83683e-11
-4.41116e-11
1.28855e-11
-3.47022e-11
1.28827e-12
-5.20942e-13
2.18317e-13
-4.37867e-11
7.4452e-13
-7.30244e-14
-1.67561e-13
-1.4242e-13
-1.36345e-13
-2.73806e-13
-2.36247e-13
-3.51271e-13
5.43997e-11
8.04306e-12
-3.74417e-11
1.19218e-12
-3.15165e-13
2.63561e-12
0
0
-1.93008e-11
8.3558e-12
2.98561e-13
4.6173e-13
-3.91139e-12
-1.02897e-12
6.14976e-13
1.42212e-10
1.63823e-10
-5.90359e-13
5.88382e-13
-1.22202e-12
2.80475e-12
3.11746e-11
-4.1099e-11
1.65432e-10
1.38978e-12
-6.97591e-11
1.74436e-13
-3.10065e-11
1.17118e-12
1.17859e-12
6.29515e-13
-5.60005e-13
-5.13397e-13
1.48279e-10
1.32238e-10
2.12712e-13
7.35374e-13
-3.40753e-13
-9.15221e-11
5.29442e-12
7.5816e-11
-8.56574e-14
5.20766e-14
7.74911e-11
-1.89712e-10
5.92685e-11
1.12545e-13
6.50727e-13
1.19453e-12
1.52886e-11
8.51614e-13
8.90986e-11
-2.1921e-12
5.92707e-11
-5.92954e-11
1.64176e-10
1.97661e-13
2.7844e-13
3.97011e-11
1.15118e-13
-2.91894e-11
9.33302e-14
4.20271e-13
-3.20445e-13
1.28585e-11
-1.942e-14
4.2898e-11
4.46798e-13
-2.23406e-13
-4.54987e-13
2.01375e-13
-1.2205e-13
1.30697e-13
1.21013e-13
-6.58452e-12
-1.18886e-13
-5.9783e-12
3.38468e-11
6.61594e-11
-1.47924e-12
-1.46644e-12
5.87719e-13
0
-2.93392e-13
-1.47122e-12
8.95401e-13
-3.33873e-13
3.23675e-14
1.21437e-13
-1.22082e-12
4.81565e-11
-1.6248e-10
-5.91663e-13
-1.42817e-10
-1.71713e-10
-4.02879e-12
5.8806e-13
8.26445e-11
-9.3256e-11
-1.69432e-10
9.09105e-11
3.74151e-11
-5.13608e-13
-1.17537e-12
-4.72666e-12
-6.21129e-11
-4.01341e-14
-6.88371e-13
-6.23501e-11
1.18331e-12
7.08652e-11
5.60821e-11
-5.72305e-13
9.12399e-11
-5.90101e-13
9.47463e-13
-6.37563e-13
3.69312e-11
-7.71289e-11
9.89353e-11
3.82976e-11
-3.02316e-13
1.38994e-13
-5.96863e-13
-1.31677e-11
8.67882e-11
1.02993e-10
-3.62223e-13
-7.27899e-11
5.91026e-11
-8.21454e-11
2.80574e-13
-5.76403e-13
-3.69824e-11
-2.96646e-11
-3.2713e-13
3.16289e-11
3.45215e-11
-6.86731e-13
7.56276e-13
6.01035e-13
4.49929e-11
1.48953e-13
6.05093e-13
7.83482e-13
1.0069e-13
8.09279e-14
4.06438e-13
-2.78028e-11
3.06909e-11
-3.9263e-11
3.17312e-13
9.23679e-11
-6.76848e-11
8.0407e-13
-8.8044e-13
2.93901e-13
-6.73624e-11
2.93462e-13
3.94364e-13
-1.19487e-12
-3.90083e-13
3.79631e-12
-3.81856e-13
-6.13792e-13
-7.76346e-13
1.2493e-10
-1.92733e-12
-1.22297e-10
-1.58199e-11
2.05874e-11
9.16496e-13
1.05592e-13
8.80321e-13
1.66969e-12
-1.78858e-10
1.47823e-13
-5.85036e-14
-8.81652e-13
1.18627e-10
1.28268e-10
3.48167e-13
-3.63354e-11
-3.52978e-12
1.29342e-12
-7.05114e-11
6.56708e-12
-1.97899e-13
5.86907e-13
-3.45012e-12
1.14723e-13
-3.37467e-13
-3.56848e-11
6.2898e-12
-3.0798e-10
4.93384e-15
-5.14647e-11
-7.23116e-13
-2.7184e-11
-2.59436e-11
-1.54973e-10
-2.13129e-11
8.63614e-11
1.05317e-12
2.79986e-13
8.2889e-11
-4.35831e-11
1.48979e-13
-3.97452e-11
-9.09003e-14
-1.47263e-11
-5.37143e-13
1.43767e-14
1.02264e-13
-1.30856e-11
-1.92417e-13
3.36853e-13
-5.95802e-13
2.62112e-13
3.29113e-11
-3.12941e-11
-3.64334e-13
-3.08317e-11
-1.26001e-13
6.86855e-12
5.00631e-14
5.79058e-12
-3.37973e-11
-2.98181e-13
-6.38594e-13
-8.20133e-11
-2.92838e-13
6.65304e-11
5.84942e-13
-9.75243e-11
7.85508e-11
1.10163e-12
2.02423e-13
1.09162e-13
6.13609e-13
3.89859e-12
0
-3.53873e-12
-1.58124e-10
1.35635e-12
7.86718e-11
3.26659e-11
-4.89499e-11
6.32593e-11
-9.20364e-13
8.00792e-12
-2.56516e-13
9.01759e-13
0
-1.17751e-12
-6.60032e-11
2.41509e-13
2.70082e-13
2.93073e-12
1.17957e-12
1.12782e-12
-5.11511e-11
-3.86458e-11
-8.77371e-13
-9.93407e-11
6.28765e-13
-4.81099e-11
8.24583e-13
-5.55236e-12
-9.88159e-14
-6.636e-11
-3.01617e-11
1.08711e-13
-3.88277e-11
8.04162e-13
6.62922e-11
-8.1565e-11
-1.72724e-10
-9.2404e-12
-8.49085e-13
-1.85653e-10
-2.49104e-13
2.97938e-13
3.65066e-11
2.96224e-11
4.50566e-13
4.40899e-11
-6.88554e-13
6.86551e-12
4.3766e-11
-2.59612e-13
-3.88352e-14
-3.15804e-11
1.74971e-13
-9.10155e-13
-5.24844e-13
-5.26176e-14
3.53443e-11
2.79553e-11
-3.08455e-11
-1.8658e-13
-1.29651e-13
-9.22693e-11
1.49084e-12
-3.50346e-13
8.25943e-11
0
-6.59441e-11
-6.17076e-11
1.79537e-10
-1.55312e-11
4.93134e-11
-3.44296e-13
1.8162e-12
-2.45416e-12
-1.5112e-13
-4.2586e-13
-3.5453e-12
1.76628e-12
-1.66895e-10
-7.72599e-11
-6.16755e-13
3.48125e-11
-1.47892e-10
7.24848e-13
7.92891e-11
3.73135e-13
7.39351e-13
8.90179e-11
-3.58676e-12
9.58669e-13
9.74056e-14
3.68593e-11
-8.79206e-13
-1.16403e-10
-4.93897e-13
2.33017e-11
2.45283e-13
8.71429e-11
1.17746e-12
9.41628e-14
1.42615e-13
3.58712e-11
-1.56317e-13
-1.609e-10
1.45192e-10
9.20236e-11
-5.07014e-14
6.57159e-11
-3.75946e-12
6.85807e-13
8.6542e-11
8.56494e-11
-8.07368e-11
1.73831e-12
1.0279e-10
1.01828e-10
0
-1.13403e-13
-6.19031e-12
4.44384e-11
3.01747e-11
3.606e-14
-2.53171e-13
2.70493e-13
-3.35839e-11
0
1.49022e-13
6.90427e-12
-3.27389e-11
3.08453e-11
2.35297e-13
3.08672e-11
1.2865e-13
4.94915e-15
1.62404e-13
-3.57661e-11
3.96408e-13
-2.9821e-13
-9.20045e-13
2.92764e-13
-2.92877e-13
6.71229e-11
6.17108e-11
-8.30017e-11
-6.18279e-11
-8.40332e-13
3.2192e-11
-8.56952e-13
0
1.65992e-12
2.9564e-10
5.90946e-13
-1.17769e-12
-2.15533e-12
1.67127e-12
-3.29573e-11
3.55077e-13
8.51848e-11
-1.72087e-12
-4.54424e-13
-8.47417e-14
4.44725e-11
-8.60977e-11
-7.97366e-13
-1.41921e-12
4.0156e-11
-1.24315e-13
2.93096e-13
2.36375e-12
7.73102e-11
-9.32259e-13
-6.85463e-12
-8.7441e-11
1.66624e-10
1.28364e-12
1.20943e-11
-6.55676e-14
7.64253e-11
1.67414e-10
-7.89155e-11
3.29749e-11
9.89244e-13
0
7.1933e-11
-7.11256e-13
-8.65844e-11
-2.00847e-12
8.89812e-11
-1.80992e-12
6.02849e-13
6.66272e-11
1.49017e-13
4.55988e-13
-3.0636e-11
-7.52312e-13
-4.35782e-11
8.17564e-13
-6.56425e-12
-4.30524e-11
2.35239e-13
6.35138e-13
3.13184e-11
-6.45418e-13
-1.16769e-13
2.84032e-13
-2.25248e-13
-3.5715e-11
1.87796e-13
4.75723e-14
-1.46395e-13
-4.37149e-11
3.71948e-11
-3.87811e-11
7.48318e-11
-2.92751e-13
-6.5599e-11
-1.17229e-12
5.84882e-13
-6.54943e-13
-2.98835e-13
-8.85745e-11
3.80603e-14
5.66874e-13
-6.13689e-13
1.46201e-10
1.50026e-13
0
1.76573e-12
-1.29496e-12
-2.04293e-12
-3.71862e-14
-5.36802e-11
0
-2.78259e-10
-3.00136e-13
-6.49107e-13
-1.80971e-12
6.14913e-11
1.62736e-10
-7.85044e-12
-1.05962e-13
1.15325e-13
0
1.50035e-10
-7.76168e-11
-2.99951e-11
2.01416e-13
0
1.76569e-12
-6.2173e-13
6.7715e-13
4.58015e-13
-7.67646e-11
-1.43972e-13
4.99511e-13
-4.06627e-11
-3.31435e-11
0
-4.79755e-11
-1.03681e-13
6.15528e-11
-8.42622e-11
-8.20245e-11
-8.21761e-13
-3.31464e-12
-5.88315e-11
1.57872e-11
3.48116e-13
6.01026e-12
3.52791e-11
-2.93429e-11
5.97754e-14
-3.12588e-13
2.25855e-13
6.97224e-11
1.10182e-13
0
-7.25824e-12
3.22989e-11
9.86165e-13
1.37105e-13
3.4306e-15
-4.204e-11
-4.5528e-13
1.69942e-13
3.52442e-11
4.94464e-14
5.1652e-11
-7.47034e-11
7.50995e-11
6.60653e-11
-5.87659e-13
-5.86412e-13
8.58669e-13
-2.98995e-13
-7.88808e-14
-3.2215e-11
6.69735e-14
3.06436e-12
1.9299e-10
-5.87545e-13
1.63582e-10
1.64245e-10
1.22054e-10
-2.3599e-11
3.13008e-11
-3.13237e-11
-1.17359e-12
-6.34659e-11
-9.88575e-11
3.87008e-13
-4.53343e-11
-1.3388e-10
1.31598e-10
7.56379e-12
-4.02709e-11
-5.49243e-11
5.87665e-13
-1.17684e-12
-9.39897e-11
3.46788e-11
4.62038e-11
8.50319e-12
2.63965e-11
-4.63987e-13
3.69723e-11
-9.69852e-13
-3.59904e-13
1.40685e-13
2.62097e-13
-3.33123e-12
-4.16182e-11
0
6.72638e-11
9.94049e-11
-6.20835e-11
8.69907e-11
8.25676e-11
9.38449e-11
7.04887e-11
-1.03267e-10
1.68698e-13
3.72196e-13
-2.47967e-12
-6.36991e-13
1.10904e-13
-1.3843e-13
3.31324e-13
-7.2073e-13
8.43718e-13
-7.46461e-13
-3.04422e-11
-5.67436e-11
-4.35382e-11
-8.24972e-14
-1.90109e-13
1.27542e-13
3.0371e-13
3.75412e-11
2.49036e-13
4.43156e-11
-1.5309e-14
-1.374e-11
-8.18859e-11
-7.36356e-11
6.16263e-11
8.93643e-13
1.48659e-12
-5.94261e-13
1.49546e-12
8.61435e-12
-9.22876e-15
-2.99751e-14
1.22409e-12
-1.50561e-10
-1.43899e-11
1.33842e-10
1.32584e-10
-3.43073e-10
2.1551e-11
3.12173e-11
1.91128e-11
1.18788e-12
-2.93819e-11
9.87042e-11
-5.77474e-13
1.73113e-12
6.87761e-11
1.36621e-10
6.01217e-13
3.96612e-11
6.50239e-13
5.9588e-13
1.72451e-10
1.71489e-11
1.65135e-13
5.41301e-13
-7.43422e-12
5.51699e-13
-9.11449e-11
-1.59224e-14
1.76756e-12
-8.91501e-13
-1.8663e-10
1.69325e-13
1.84765e-12
3.25915e-11
5.98091e-13
-1.24722e-10
-1.00341e-10
-8.82176e-11
8.60515e-11
1.28925e-11
-3.09361e-11
-6.84319e-11
-3.15128e-13
-1.64106e-11
-1.45435e-13
-2.92787e-14
-3.59295e-11
3.04519e-11
-3.79226e-13
3.15823e-11
-5.60818e-13
-3.63951e-11
0
1.48886e-13
2.57712e-13
-3.64377e-11
4.03814e-14
-4.44862e-12
-4.0946e-11
4.21313e-11
4.12968e-11
3.13651e-11
3.64532e-11
7.96719e-13
-6.57783e-11
1.89374e-10
-1.0158e-12
-6.16979e-11
5.9055e-11
-8.89401e-13
-7.70661e-12
-7.19778e-11
-3.81465e-11
4.35373e-14
5.94406e-13
2.66458e-11
-1.17873e-12
-3.54552e-12
0
1.02964e-14
-1.80515e-10
2.63943e-12
-3.14728e-11
3.1639e-11
-4.40505e-13
-6.44928e-14
1.05153e-12
4.62875e-13
-2.25934e-11
-3.64222e-11
5.71361e-13
-4.18213e-13
-3.57358e-11
3.10558e-13
1.92064e-12
-1.18223e-12
-1.87135e-11
7.02967e-11
-2.10489e-11
2.12126e-12
0
-7.11712e-12
1.79563e-13
1.54082e-11
-1.45441e-11
-2.46895e-11
-1.0366e-12
-5.316e-13
2.03981e-11
-4.26934e-12
5.81331e-13
7.76576e-11
-3.47346e-11
6.65145e-13
-5.93058e-13
-1.14486e-10
8.55966e-11
-8.26299e-11
4.9186e-11
-4.32169e-11
5.76854e-13
9.06387e-11
-2.45759e-13
3.83003e-11
2.96454e-13
1.70541e-11
3.42397e-12
-1.9714e-10
-1.16408e-12
2.32662e-12
1.44795e-10
-2.01247e-13
1.01065e-12
4.12362e-11
1.48713e-12
1.12023e-10
2.60447e-13
8.69017e-11
-8.513e-11
-1.36274e-11
-6.4762e-11
0
3.76554e-11
-3.90168e-11
3.06114e-14
2.94682e-11
-1.31343e-13
3.50391e-11
4.88695e-14
3.98549e-13
-1.52895e-12
-4.21961e-11
2.0843e-12
3.20697e-11
5.69765e-11
4.34137e-11
-3.70046e-12
-1.13646e-13
1.47987e-13
-5.92067e-13
-3.74353e-11
9.09254e-13
1.05807e-12
0
1.2883e-11
-4.9209e-11
1.10713e-13
-5.90751e-13
2.96639e-12
-1.0915e-11
6.79785e-12
-1.62258e-11
3.04128e-11
6.37132e-12
3.08344e-13
-2.94682e-13
-7.05987e-11
0
-8.55759e-13
-2.93793e-13
2.93963e-13
1.62475e-13
-3.09627e-11
-3.27116e-11
1.92082e-11
2.93731e-13
0
-7.88342e-11
8.13653e-11
6.24202e-11
-1.46492e-12
5.39658e-13
5.91981e-13
-1.4798e-13
-4.47201e-11
2.92072e-13
2.0442e-11
-1.05058e-11
1.15569e-13
-4.16629e-12
-1.02768e-13
-2.8362e-11
-3.92104e-11
-5.91925e-13
2.83719e-12
7.09426e-11
1.37191e-11
1.09944e-11
-2.16347e-11
-1.92277e-12
1.66627e-12
2.69287e-11
0
-5.92074e-13
9.54728e-12
9.43861e-11
-2.56655e-11
8.063e-11
0
-1.24277e-12
-7.47951e-13
3.98846e-13
-4.44021e-13
2.9759e-11
2.95586e-13
6.34055e-11
-5.86546e-13
-4.19135e-14
-2.16042e-13
1.41622e-10
-8.87914e-11
-5.89865e-13
-1.54973e-12
-2.96747e-13
-1.67035e-11
-8.8635e-13
4.43794e-11
2.94883e-13
-3.86526e-11
6.95137e-11
-1.37874e-11
-1.51774e-11
4.45155e-13
3.15774e-13
-1.29392e-13
-3.48886e-13
0
-3.00192e-11
5.919e-13
-3.07837e-11
1.48151e-13
-4.45082e-13
4.4539e-13
-1.48202e-13
2.96244e-13
2.16096e-11
1.47935e-13
4.88148e-12
4.0677e-11
0
-7.29755e-11
-3.22907e-11
-3.69009e-11
-1.18496e-12
-3.96584e-11
4.3458e-11
3.04334e-11
-2.58884e-11
-3.8566e-11
4.93433e-11
1.35944e-11
5.41592e-11
3.80648e-11
-3.10814e-11
-1.47813e-13
-1.39051e-11
-1.51947e-11
1.47659e-13
1.52833e-11
-4.42581e-13
-1.11388e-11
-3.00038e-11
0
-3.09159e-11
0
-1.73316e-12
-2.70646e-11
-2.04288e-11
-2.19831e-11
-4.65372e-12
-5.01619e-11
-1.47739e-13
3.56485e-11
5.91588e-13
-3.11731e-11
-2.23162e-11
0
4.19776e-11
5.51748e-11
1.15468e-11
1.26999e-11
-4.43309e-13
1.1832e-12
4.008e-11
0
-2.50794e-11
-3.99238e-11
-3.21899e-11
7.41631e-13
-9.28909e-12
-7.67884e-12
-3.54648e-11
2.95807e-13
2.9585e-13
-8.25683e-11
-3.59337e-11
4.9152e-11
1.57343e-11
-4.17884e-11
-2.13484e-11
2.34934e-11
-3.20572e-11
0
-3.72994e-11
8.45903e-12
1.0657e-11
-1.34192e-11
-1.03369e-11
-2.21514e-12
-1.46801e-11
1.47166e-11
-4.02656e-12
3.22682e-11
2.96229e-13
-4.02494e-11
-2.68174e-11
-3.0133e-11
4.33194e-11
3.93043e-11
2.95486e-13
4.27154e-11
4.60208e-11
-4.44366e-13
3.88252e-11
0
2.66411e-12
-1.47926e-13
-3.53517e-11
-3.49059e-11
-1.03546e-12
-3.82952e-11
9.03876e-11
-2.07477e-12
3.12389e-11
-5.9202e-13
1.47947e-13
4.14138e-12
-7.39478e-13
-1.47896e-13
1.4791e-13
-4.43855e-13
-5.92028e-13
-1.33246e-12
-4.05527e-11
-4.23097e-11
7.39324e-13
2.95663e-13
0
-3.69596e-11
1.47835e-13
1.47871e-13
3.16588e-11
0
-3.80207e-11
-3.45993e-11
-2.95575e-13
-2.49749e-11
-2.55735e-11
-7.08089e-11
1.47788e-13
7.06451e-11
1.47862e-13
0
3.15014e-11
-3.25197e-11
0
3.69551e-12
1.33132e-12
-4.68933e-11
0
4.43368e-13
-1.47829e-13
1.03529e-12
-3.91871e-11
4.5378e-11
-7.3895e-13
-2.95797e-13
-3.99745e-11
2.96117e-13
-1.4793e-13
-3.38528e-11
7.14035e-11
4.43658e-12
-1.47875e-13
3.84301e-11
3.9163e-11
2.95791e-13
1.48054e-13
0
2.88464e-11
-4.43485e-13
0
2.79508e-11
1.47893e-13
2.9562e-13
8.21481e-11
-1.47804e-13
0
-1.47931e-13
-3.07511e-11
-1.47787e-13
3.97668e-11
0
-3.19548e-11
-1.47854e-13
1.47768e-13
0
-4.18334e-11
-1.33045e-12
4.67016e-11
-7.38965e-13
-5.91476e-13
-2.95898e-13
1.47998e-13
-2.95862e-13
-5.91425e-13
-3.45904e-11
0
1.47834e-13
-4.92274e-11
-4.43589e-13
-3.19546e-11
-4.44018e-13
0
4.4399e-13
4.43817e-13
1.47899e-13
-1.47888e-13
1.29569e-13
3.08742e-12
1.10749e-13
-3.69676e-14
2.96102e-13
1.28734e-11
5.91782e-13
-1.80457e-11
1.47896e-13
1.331e-12
-5.91561e-13
0
3.18029e-11
8.87693e-13
1.47972e-13
-1.47943e-13
1.47914e-13
7.39417e-13
-3.01654e-11
3.37148e-11
-6.80216e-12
-7.54157e-12
-4.43667e-13
-4.43754e-13
0
3.15048e-11
-1.03515e-12
2.95708e-13
-3.09019e-11
-4.43625e-13
-3.93354e-11
-3.2382e-11
1.90742e-11
2.9725e-11
2.95828e-13
3.10557e-11
7.39291e-13
-2.95695e-13
3.96308e-11
1.87857e-11
4.14183e-12
4.58454e-12
3.96272e-11
-7.3935e-13
-7.39462e-13
-8.87236e-13
3.10491e-11
3.25283e-11
2.95813e-13
-7.75354e-11
-5.51942e-11
4.43772e-13
5.91512e-13
-2.95741e-13
-1.47885e-12
1.47872e-13
0
-2.95707e-13
4.43713e-13
0
-1.03582e-12
-2.95848e-13
-3.19417e-11
0
4.11123e-11
-1.47882e-13
4.12513e-11
3.16377e-11
1.47869e-13
4.46706e-11
4.17141e-11
8.28175e-11
-5.9145e-13
3.20882e-11
2.95791e-13
1.47907e-13
0
-2.95691e-13
3.87362e-11
-4.43613e-13
-4.37712e-11
-1.47862e-13
0
0
-3.2394e-11
-1.47939e-13
4.0675e-11
3.80043e-11
5.91452e-13
-4.39165e-11
-1.62656e-12
-5.9148e-13
1.47885e-13
-7.39588e-13
-3.69869e-12
1.47964e-13
0
1.4791e-12
-1.47889e-13
0
3.47712e-11
1.34941e-12
3.94931e-11
-4.9118e-11
-2.95943e-13
-1.99695e-11
1.03536e-12
1.47892e-13
-2.95763e-13
2.21818e-12
2.9576e-13
-2.9577e-13
5.91586e-13
0
1.47926e-13
4.11178e-11
4.25929e-11
-8.87275e-13
-7.39376e-13
3.37162e-11
3.00196e-11
-8.87279e-13
1.47885e-13
-3.16501e-11
2.95821e-13
3.1056e-11
3.37155e-11
-4.43609e-13
-5.61936e-12
2.5733e-11
-1.03525e-11
-3.23867e-11
-4.05187e-11
-4.4365e-13
2.95786e-13
2.07019e-12
4.43596e-13
-2.95742e-13
-1.47895e-13
4.3341e-11
4.65964e-11
0
-2.95768e-13
-8.87265e-13
-7.39405e-13
3.93316e-11
-4.43588e-13
7.39387e-13
2.95827e-13
3.10694e-12
-2.95908e-13
4.43779e-13
3.40157e-11
-3.00193e-11
-4.28842e-12
0
-3.88876e-11