/*--------------------------------*- C++ -*----------------------------------*\
  =========                 |
  \\      /  F ield         | OpenFOAM: The Open Source CFD Toolbox
   \\    /   O peration     | Website:  https://openfoam.org
    \\  /    A nd           | Version:  10
     \\/     M anipulation  |
\*---------------------------------------------------------------------------*/
FoamFile
{
    format      ascii;
    class       volScalarField;
    location    "1.3";
    object      gradTx;
}
// * * * * * * * * * * * * * * * * * * * * * * * * * * * * * * * * * * * * * //

dimensions      [0 -1 0 1 0 0 0];

internalField   nonuniform List<scalar> 
47104
(
1.3959e-13
-6.19299e-15
5.86824e-13
5.51545e-13
-1.94693e-13
1.55231e-13
2.57508e-13
5.25537e-14
-2.57264e-15
-1.39584e-13
9.32208e-15
-9.24761e-14
2.22353e-13
-4.78894e-13
1.36972e-14
3.3169e-11
3.82075e-13
-3.25277e-11
-2.49457e-11
-2.46039e-11
-1.39536e-13
9.21406e-14
5.27129e-12
1.93937e-14
-5.90722e-12
8.07692e-14
6.88304e-13
2.23745e-13
6.41274e-13
2.88441e-13
-2.276e-11
-2.29394e-11
-6.4076e-13
2.21288e-13
-7.33345e-14
6.48114e-14
-5.54172e-13
-9.46398e-14
6.73925e-13
1.57889e-13
1.4855e-13
5.42096e-14
-1.16466e-13
-1.50007e-13
-1.59357e-14
-2.59367e-13
3.5623e-14
-1.49982e-13
1.7877e-13
-1.48542e-13
0
8.53243e-13
1.64541e-13
-8.74391e-14
1.45551e-13
3.43714e-12
4.21351e-13
2.09938e-11
-5.26787e-13
-2.52527e-11
2.24464e-11
2.19611e-13
-2.23268e-11
5.64671e-13
-6.48417e-13
6.67922e-15
4.82651e-13
2.97554e-12
-2.61212e-13
-2.8161e-12
4.56183e-13
-2.05149e-13
-5.14895e-13
-3.30068e-11
-9.14292e-14
3.31589e-11
-1.40107e-13
-3.91628e-14
7.04264e-13
7.35228e-13
-1.39766e-13
1.72158e-13
5.56994e-13
-1.59196e-13
-5.49235e-13
1.04232e-13
2.536e-11
-1.14694e-14
8.42738e-13
2.62263e-11
1.39609e-13
4.66196e-13
-1.21779e-13
-3.50837e-13
-2.50039e-11
1.38527e-13
2.42031e-11
-2.32786e-11
4.59501e-13
2.32682e-11
-1.49214e-13
-2.17131e-13
-2.76705e-12
7.33019e-14
2.82477e-12
-2.09818e-14
1.11919e-13
-2.01515e-13
1.09675e-13
4.47613e-13
-1.49336e-13
-4.17924e-11
-2.093e-11
4.19867e-11
2.10632e-11
3.35821e-11
2.21682e-11
-6.0413e-11
-2.22973e-11
2.67296e-11
1.23924e-11
2.12481e-11
-1.76374e-11
1.16772e-12
-3.50106e-13
-5.35356e-11
1.02805e-10
-4.95467e-11
0
1.493e-13
1.49207e-13
-1.10659e-11
4.47139e-13
4.57472e-15
-6.47367e-11
6.44809e-11
-3.18502e-14
-3.53313e-11
-2.7253e-11
-1.49201e-12
-1.49167e-13
9.68461e-12
2.1768e-12
-2.34314e-12
7.11962e-13
-3.28961e-11
3.2246e-11
-6.41436e-13
-2.752e-11
-2.72961e-11
2.28239e-11
2.35955e-11
5.59002e-13
6.62395e-13
1.08287e-11
-1.04319e-11
6.07278e-11
-5.99562e-11
-3.36528e-11
6.26487e-12
5.62607e-11
3.92582e-12
-4.28493e-11
-4.98223e-11
5.04907e-11
2.08124e-14
2.34918e-13
6.16159e-11
-5.19665e-12
5.05837e-11
0
-2.61892e-13
6.86849e-11
-6.78669e-11
2.51987e-13
9.52966e-14
-1.40128e-12
2.58775e-13
1.00259e-11
0
2.31501e-11
9.74589e-12
-2.32227e-11
-9.61156e-12
-6.3346e-13
-1.79415e-13
-6.59211e-13
4.82939e-13
-2.25549e-11
-2.32977e-11
-1.4921e-13
2.87317e-13
-4.51699e-13
4.39411e-13
-3.55916e-11
-2.37194e-11
3.55916e-11
2.37205e-11
-2.29462e-13
-2.98422e-13
1.49189e-13
3.02229e-11
2.23983e-11
-3.01935e-11
-2.21641e-11
-6.74323e-14
-1.48531e-13
1.49571e-13
-1.65011e-13
0
1.86566e-11
-3.31366e-11
5.47694e-12
-5.75722e-11
5.75787e-11
-5.92946e-13
-7.14514e-13
5.19459e-13
1.77182e-13
-1.88042e-11
1.74451e-11
7.00682e-12
1.86949e-12
-5.79433e-12
-1.2462e-12
-2.81108e-13
1.21055e-11
-4.67068e-12
9.47962e-13
9.84037e-12
-1.65366e-11
6.0072e-11
1.71087e-09
-2.9828e-07
1.50482e-08
-3.21124e-09
-5.08791e-08
1.03869e-07
-6.60083e-13
-8.9384e-12
-2.98048e-13
3.61196e-13
2.85389e-09
-2.05152e-07
2.76734e-07
-6.22095e-08
-7.98575e-07
1.82441e-07
-7.01071e-11
0
1.49037e-13
1.13052e-13
2.82781e-09
-2.05729e-07
2.93115e-07
-6.62666e-08
-8.34742e-07
1.87005e-07
5.3895e-13
-8.64329e-12
-1.07292e-11
2.14938e-11
2.89186e-09
-1.68829e-07
2.2675e-07
-5.04774e-08
-6.73339e-07
1.66633e-07
1.68664e-13
0
-6.71209e-12
1.17279e-11
-2.36217e-10
-4.39994e-08
-9.42339e-09
2.23206e-09
2.57633e-08
-5.58958e-09
6.87592e-11
-4.47381e-13
1.49293e-13
1.90947e-11
-1.82017e-11
-6.54162e-11
6.38588e-11
1.48587e-11
-1.43628e-11
-2.63046e-13
-1.04107e-12
1.83606e-11
-2.70024e-11
3.17236e-11
2.69602e-11
-3.2167e-11
4.54617e-13
-6.66702e-13
-4.1339e-14
2.91875e-13
1.23709e-13
0
-2.45601e-11
-2.32366e-11
-2.39381e-13
-1.19617e-12
-3.34398e-11
-3.7842e-13
3.66809e-11
9.80484e-15
-3.36096e-12
-1.48823e-13
1.48615e-13
4.46779e-14
-8.58546e-12
-6.73992e-12
4.99063e-14
1.99283e-11
-1.70765e-11
5.23526e-11
-7.93003e-13
-1.99115e-11
4.13374e-12
3.78484e-10
2.01241e-08
-9.01377e-07
-5.70449e-09
-2.40968e-09
2.31909e-08
2.35502e-06
-2.17186e-07
6.93843e-12
-6.29298e-11
2.63881e-09
0.00023639
-1.24321
-0.0110844
0.000709873
0.0299147
1.17513
1.57344e-05
2.28829e-11
-6.2114e-11
3.11443e-10
0.000244654
-1.99864
-0.037183
0.00220424
0.105548
1.46972
1.46195e-05
5.8595e-11
-3.54555e-11
1.28806e-10
0.000245844
-2.0101
-0.0387524
0.0023134
0.108359
1.47521
1.45798e-05
7.42717e-11
-5.077e-11
1.07275e-09
0.000243467
-1.98174
-0.0353374
0.00208081
0.101598
1.45704
1.47835e-05
6.44016e-11
-2.83569e-11
7.93043e-09
0.000235235
0.315456
-0.0401347
-0.0430985
-0.0451469
-0.36156
1.20097e-05
6.34924e-12
1.48658e-13
4.93963e-13
7.12412e-09
8.01073e-08
4.98215e-09
-1.21694e-09
-2.00753e-08
-1.71856e-07
-4.19309e-10
8.0265e-12
-5.95366e-13
2.65055e-11
6.70311e-13
-2.59034e-12
2.39101e-13
-2.39804e-11
-3.89655e-13
2.87466e-11
1.25328e-13
-2.85792e-11
-7.43326e-13
-2.85815e-13
1.89138e-13
2.46396e-12
1.00687e-12
-7.51123e-13
-2.71879e-11
5.79217e-13
2.5073e-11
0
4.74851e-11
3.71404e-11
3.00987e-11
1.49586e-08
4.775e-09
-8.10016e-10
-1.16029e-08
1.35266e-09
4.27018e-11
-3.85748e-12
6.22968e-11
-4.00613e-10
2.32083e-06
0.0398654
0.00110418
0.0002605
-0.00176469
0.00206715
-7.64663e-07
-6.2441e-11
-3.3151e-10
-1.11618e-06
-1.53788
0.00263869
3.24677e-10
-4.04947e-10
-1.72166e-06
-1.85967
0.00313933
4.10701e-10
-4.10792e-10
-1.68488e-06
-1.8631
0.00314687
4.60586e-10
-3.59706e-10
-1.78254e-06
-1.85403
0.00310986
3.33843e-10
1.92567e-11
1.51111e-07
-0.020568
-0.00012844
-1.46943e-13
-8.6086e-12
4.83232e-14
1.35859e-07
4.70704e-05
3.19428e-06
-6.61369e-07
-1.57474e-05
5.43635e-06
4.76615e-10
-8.45954e-12
-1.4865e-13
5.89205e-13
-6.08266e-14
-2.14715e-11
7.00972e-13
5.72465e-11
-2.95598e-12
-5.24127e-12
2.19557e-14
-3.0031e-11
2.08189e-12
-2.47618e-14
-2.32662e-12
2.2982e-12
1.0282e-12
-1.14481e-12
-2.53661e-12
-1.30222e-13
2.22308e-13
4.46039e-13
2.24296e-11
1.08294e-10
1.48453e-12
1.65901e-08
6.48964e-09
-9.91885e-10
-1.55722e-08
1.82534e-09
7.459e-12
-9.95028e-12
8.38114e-12
-7.88286e-10
2.046e-06
0.050191
0.00139803
0.000204919
-0.00259706
0.00215462
-7.0043e-07
2.41119e-11
-3.10674e-10
-1.00492e-06
-1.58142
0.00270686
2.80042e-10
-4.04417e-10
-1.80542e-06
-1.94175
0.00334645
3.99753e-10
-3.89321e-10
-1.75775e-06
-1.94656
0.00335769
3.86195e-10
-3.31318e-10
-1.77691e-06
-1.9281
0.00329997
3.4938e-10
-1.25046e-11
4.53297e-08
-0.0969566
-0.000138985
-1.74982e-11
-1.27762e-11
-1.29574e-11
1.44573e-07
5.55509e-05
4.3426e-06
-9.50532e-07
-2.47552e-05
2.23232e-06
5.33308e-10
1.81243e-11
1.48683e-13
8.67651e-14
2.64476e-11
2.66562e-12
-2.59173e-11
-1.05899e-12
-2.53423e-12
2.64727e-11
3.3718e-14
-2.66191e-11
-1.63671e-12
-6.65924e-13
4.48419e-13
1.76258e-12
1.0586e-12
-8.24993e-13
-2.47451e-12
2.45859e-14
1.93161e-13
-1.48767e-13
5.94701e-12
-8.61247e-11
1.39271e-10
1.62583e-08
6.71858e-09
-1.02964e-09
-1.57801e-08
1.81012e-09
-2.77057e-13
3.38896e-11
6.35862e-11
-7.91988e-10
2.03779e-06
0.0504112
0.00137387
0.000142055
-0.00269607
0.00216475
-6.95146e-07
-2.89882e-11
-3.01801e-10
-9.70989e-07
-1.58266
0.00271347
2.97771e-10
-3.88609e-10
-1.7543e-06
-1.94513
0.00335888
3.58785e-10
-3.38802e-10
-1.69695e-06
-1.95051
0.00337067
3.84058e-10
-2.90987e-10
-1.85766e-06
-1.93794
0.00331108
2.9198e-10
1.75218e-11
8.6569e-08
-0.0191702
-0.000139715
4.04716e-11
-1.14491e-11
4.99018e-11
1.4549e-07
5.6138e-05
4.51321e-06
-8.08597e-07
-1.85865e-05
6.30276e-06
8.38841e-10
1.42742e-11
-3.06456e-11
-3.6056e-13
5.73488e-12
2.80569e-11
5.10187e-11
-2.66748e-11
-3.14646e-11
4.67103e-13
3.38284e-12
-1.48797e-13
-4.71882e-11
-7.80148e-14
4.68535e-11
2.73095e-12
2.83589e-11
-2.45088e-11
-2.93973e-11
2.3605e-11
5.63836e-13
5.9536e-13
2.975e-13
-2.24436e-12
5.8367e-11
1.61754e-08
6.73078e-09
-1.05545e-09
-1.57609e-08
1.82019e-09
5.74894e-14
1.04102e-12
-2.06225e-12
-5.06476e-10
2.04885e-06
0.0504504
0.00137081
0.000133549
-0.00270792
0.00216406
-7.03851e-07
-7.36156e-12
-2.98607e-10
-9.44144e-07
0.12172
0.00271454
3.2729e-10
-3.89348e-10
-1.75745e-06
-1.94288
0.00336009
3.87348e-10
-3.81955e-10
-1.69419e-06
-1.9508
0.00337189
3.79409e-10
-2.65592e-10
-1.85185e-06
-1.93865
0.00331219
3.03636e-10
2.63719e-11
8.67348e-08
-0.0191637
-0.0001398
-1.20746e-11
-1.91915e-11
-5.57162e-11
1.45746e-07
5.61627e-05
4.51491e-06
-8.78615e-07
-2.00869e-05
6.12466e-06
7.7968e-10
2.97536e-13
0
-2.45085e-11
-3.04792e-13
5.45952e-11
9.98502e-13
-2.8481e-11
-3.06335e-12
1.15343e-13
-2.53508e-14
0
2.38246e-12
-3.44146e-13
-3.29453e-12
-2.65998e-12
6.40518e-13
3.92279e-12
-2.79477e-12
-3.95161e-14
8.58907e-13
1.48897e-13
-1.74085e-11
7.93949e-14
8.90569e-11
1.63075e-08
6.56624e-09
-1.00392e-09
-1.5697e-08
1.83909e-09
1.22986e-10
-7.73638e-12
-8.25327e-12
1.36196e-10
2.08562e-06
0.0503329
0.00136693
0.000154343
-0.00266207
0.00215938
-7.13994e-07
-2.59289e-11
-3.12882e-10
-1.07395e-06
0.272907
0.00271221
3.03254e-10
-4.07008e-10
-1.8007e-06
-1.94158
0.0033523
3.9735e-10
-4.25529e-10
-1.73867e-06
-1.94922
0.00336362
4.25141e-10
-3.2394e-10
-1.88619e-06
-1.9373
0.00330558
3.19842e-10
1.03193e-11
8.66355e-08
-0.0191412
-0.000139611
-3.63935e-11
8.78083e-12
-2.83983e-13
1.45241e-07
5.55696e-05
4.34707e-06
-9.44838e-07
-2.47323e-05
2.21985e-06
6.51345e-10
-1.48823e-13
-1.48892e-13
-4.67784e-14
3.68856e-13
-2.83187e-12
2.70182e-13
3.8594e-12
-3.02794e-12
3.11707e-13
-4.73197e-13
-2.9785e-13
-1.48928e-13
-5.66922e-14
-2.88259e-11
2.10668e-13
2.8746e-11
-1.79679e-14
-4.53208e-13
3.21651e-11
-1.19022e-13
-3.23196e-11
3.48221e-11
4.3288e-11
3.75241e-11
9.55009e-09
2.6342e-09
-3.84838e-10
-6.42308e-09
1.33417e-09
4.75486e-11
1.93472e-12
4.61566e-11
-5.89084e-10
2.0964e-06
0.0423206
0.00106719
0.000145697
-0.00199433
0.00216861
-7.44642e-07
3.33233e-11
-1.50112e-11
-7.16987e-07
-1.55466
0.00236587
8.58177e-11
-4.77625e-11
-8.14369e-07
-1.88741
0.0026687
5.52983e-11
-8.56596e-12
-7.64342e-07
-1.89162
0.00267424
5.50092e-11
-6.69148e-11
-9.36654e-07
-1.88246
0.00265536
6.09068e-11
-2.37529e-11
7.40763e-08
-0.0203541
-0.000119481
-1.32722e-12
-1.10163e-11
-7.1807e-13
1.28482e-07
3.93195e-05
2.74092e-06
-4.92824e-07
-1.1412e-05
4.74114e-06
6.64414e-10
4.466e-13
-1.4893e-13
2.4233e-12
3.2376e-11
-1.4544e-12
-3.2321e-11
-3.69356e-11
-3.28135e-11
3.72587e-11
3.29406e-11
1.48962e-13
-1.48929e-13
-1.83452e-13
2.41563e-11
-4.17069e-13
-1.99253e-12
6.07888e-13
-2.27631e-11
4.34702e-13
9.29383e-13
-4.46866e-13
1.48808e-13
-6.10581e-13
-4.94132e-11
-2.42024e-11
-1.48387e-11
2.06125e-12
3.00508e-11
1.26664e-11
1.06958e-10
-1.25025e-11
-9.88017e-12
-1.20943e-10
-6.25401e-07
9.48513e-06
2.7031e-07
-5.04164e-08
-5.29744e-07
-4.02823e-05
1.05962e-07
-7.66756e-12
4.37226e-13
5.01091e-09
-0.00130997
-4.03688e-06
2.9141e-13
-8.27636e-12
5.17583e-09
-0.00135075
-4.23245e-06
2.88838e-11
1.45216e-13
5.16497e-09
-0.00132596
-4.24621e-06
1.4515e-13
3.84917e-11
5.13873e-09
-0.00134925
-4.1864e-06
-4.85247e-11
0
4.15087e-09
-0.00121889
-2.34051e-06
9.43871e-12
-9.82657e-12
4.06101e-12
4.18961e-09
-3.78684e-08
-2.87343e-09
5.28958e-10
1.02489e-08
6.57917e-08
5.28022e-11
-1.48875e-13
4.46835e-13
-5.77812e-13
2.86278e-11
-2.15103e-11
-2.88882e-11
2.24342e-11
-1.0761e-13
-8.8998e-14
6.96632e-14
-1.48971e-13
-1.31045e-11
-3.38395e-11
-2.11747e-11
3.30687e-13
3.66521e-13
-1.07718e-12
-7.93536e-13
1.20035e-13
8.34067e-15
0
-5.60931e-11
-3.7595e-11
4.67582e-11
-4.62222e-11
4.67651e-11
-4.70841e-11
-4.81151e-11
4.85398e-11
4.91914e-13
-7.58985e-12
-1.47353e-13
-5.4676e-11
-5.74502e-11
-1.13998e-10
5.63956e-13
-1.29752e-10
-1.18096e-12
1.90063e-12
8.12298e-11
-4.68555e-11
1.09066e-11
7.30203e-11
-9.69871e-11
-9.43848e-13
0
5.79035e-13
3.00052e-13
-4.18042e-11
-3.6573e-13
0
-1.07133e-11
2.2011e-11
1.05227e-13
9.51825e-11
-1.69332e-11
1.44022e-11
4.19636e-12
-5.70524e-12
-3.64231e-13
-3.0539e-11
3.45021e-11
3.3174e-11
1.43545e-13
1.24294e-12
-5.07009e-11
1.48876e-13
-4.37038e-13
4.17976e-13
-3.00308e-11
2.95925e-11
-5.06566e-11
5.03825e-11
-5.61921e-11
5.89997e-11
2.15837e-11
-2.78515e-11
-3.64831e-11
5.89506e-12
3.65559e-11
2.19517e-11
5.9369e-15
-3.26076e-11
-2.28019e-11
3.26436e-11
2.36843e-11
-2.9036e-11
2.36113e-11
2.92584e-11
-5.24507e-11
-7.08691e-14
1.87765e-11
3.80766e-13
9.59473e-12
-1.40659e-13
2.97875e-13
8.48041e-12
-6.96488e-11
5.26949e-11
1.99273e-12
-1.95626e-12
-6.47557e-11
6.48123e-11
-2.05929e-12
4.084e-13
-4.79151e-11
1.4729e-13
3.44441e-13
-2.60682e-13
-5.79757e-13
-5.8972e-13
7.48187e-13
1.26364e-12
9.30821e-11
-7.98636e-12
-5.47906e-11
-1.45264e-13
-7.3574e-11
9.95924e-11
4.86865e-12
-3.00671e-11
-4.84217e-11
-4.90212e-11
-4.17535e-14
-7.70472e-11
1.44528e-12
1.44554e-13
-5.52696e-11
7.44793e-11
-1.14465e-11
-3.75801e-12
-3.63254e-11
-6.43434e-11
3.14059e-11
-2.51485e-11
-4.32999e-11
1.62091e-12
-4.46562e-11
9.53401e-11
-9.60974e-11
1.47352e-13
1.86059e-11
9.72512e-12
1.6204e-12
1.68833e-11
-1.82097e-13
-5.98385e-11
-5.74845e-12
6.15256e-12
5.91825e-11
-3.76562e-11
2.97845e-13
3.02649e-13
6.81524e-13
3.78181e-13
-1.28332e-12
-7.1172e-13
2.85316e-11
-3.64307e-13
-2.85775e-11
8.93643e-13
-5.9558e-13
1.70599e-13
2.43742e-13
-2.55116e-13
-1.94833e-13
2.27924e-11
-2.38953e-11
-2.29211e-11
2.4231e-11
0
1.4877e-13
-2.38324e-14
5.95492e-13
4.96024e-11
-1.11282e-10
6.14197e-11
3.38779e-13
2.94211e-13
2.90412e-13
-7.43998e-13
-1.10456e-11
-6.91856e-13
-3.93661e-11
1.34214e-10
1.1031e-10
-5.89026e-13
-1.21951e-10
1.92185e-12
6.97203e-13
1.47274e-13
3.07898e-11
2.1528e-11
-4.13138e-11
-2.68951e-12
-5.85261e-11
-8.81461e-12
-9.54796e-13
4.59434e-13
2.3521e-11
-3.39563e-11
-7.22565e-13
6.54879e-13
3.25141e-11
5.8731e-13
-1.30052e-12
7.26391e-12
-2.11464e-11
-4.04978e-11
6.75407e-11
-8.42495e-12
4.47889e-11
8.21643e-11
-1.56975e-10
1.13153e-13
1.59104e-11
0
-7.84729e-15
-1.20814e-12
4.53817e-11
2.8785e-11
-7.39727e-11
4.49197e-11
-4.48051e-11
-5.89782e-13
-5.22394e-11
-1.4891e-13
3.60301e-11
3.41659e-11
-6.99925e-11
-3.3431e-11
3.36159e-11
-1.18012e-13
3.127e-13
-1.04365e-12
-1.04252e-12
5.95574e-13
7.49847e-13
-2.14125e-13
2.61702e-13
-1.27068e-15
-5.06826e-14
-5.33465e-14
-1.11453e-11
-6.17868e-12
5.21263e-12
1.08594e-11
-4.74828e-11
4.72173e-11
-1.14491e-12
-4.3602e-13
1.04714e-14
2.44973e-13
2.94195e-13
6.76619e-11
-1.08625e-11
-1.32562e-12
-3.18127e-13
-3.45017e-11
1.36819e-10
-1.05836e-12
-9.70832e-13
1.29502e-12
8.68929e-11
-4.88e-11
-1.48762e-11
-4.99778e-11
1.82141e-11
-7.83789e-11
1.45346e-13
-1.22025e-11
-3.09357e-11
-2.91232e-11
1.00492e-12
-2.00718e-11
8.09494e-12
-1.59028e-12
3.28899e-14
3.86948e-12
6.67902e-12
-5.7823e-13
0
-7.48264e-15
-1.39903e-10
-1.42962e-11
7.99053e-12
-1.47359e-13
-1.82093e-11
4.38882e-11
-2.23951e-11
-2.799e-12
4.46455e-13
2.74239e-13
4.47131e-11
1.68024e-11
-6.26576e-11
-2.84263e-13
-1.14542e-13
2.9464e-12
5.10504e-13
3.86957e-12
1.4891e-13
1.42527e-13
1.29448e-14
1.25262e-13
-1.17232e-13
8.93547e-14
-5.16385e-14
1.60813e-13
-3.24272e-11
-3.20209e-11
0
2.19879e-13
-3.42015e-13
1.29343e-14
2.15444e-13
-9.63129e-14
6.64843e-14
6.18884e-14
5.48179e-14
1.48946e-13
-1.48766e-13
3.70555e-13
-3.14619e-13
1.18103e-12
2.04451e-13
4.14117e-13
1.18038e-12
-8.82347e-13
1.1135e-13
-8.03589e-12
1.47355e-13
-1.87735e-11
-2.61245e-14
3.47651e-12
3.01247e-12
-1.38709e-10
-8.50568e-11
8.72856e-13
2.55696e-11
-5.89439e-12
5.60076e-11
1.12779e-11
1.56879e-12
5.80728e-13
-3.69464e-11
9.84749e-12
-5.16391e-11
2.10814e-11
-7.28603e-11
1.24536e-11
-4.34478e-13
6.20823e-11
-8.32912e-11
-6.64739e-11
5.93729e-12
-1.17862e-11
4.15234e-11
-7.59116e-11
-1.7486e-12
-8.00037e-12
4.73194e-11
6.83859e-11
-3.70996e-11
-6.46439e-11
7.81078e-12
-1.63712e-12
-9.10267e-12
1.0264e-11
-2.83588e-13
2.32461e-13
-5.87604e-14
6.13816e-11
1.28008e-13
-6.1531e-12
-1.28003e-11
-1.48925e-13
-2.61787e-14
4.5788e-13
-2.43658e-11
-2.60776e-11
2.47602e-11
2.54921e-11
-8.04983e-13
-3.32738e-11
-3.41098e-11
-2.97865e-13
1.76908e-13
2.77733e-13
-1.47819e-13
-1.50453e-13
-1.94592e-13
9.31085e-14
2.96055e-11
-1.40752e-13
-2.94968e-11
4.61315e-11
-1.29618e-11
4.93858e-11
6.07701e-13
3.0654e-13
-5.27532e-13
-1.29828e-13
7.313e-14
2.15471e-13
7.44283e-13
3.83427e-12
3.93303e-12
-1.12261e-12
7.87009e-13
-7.11445e-13
1.79486e-12
2.07897e-10
5.53432e-11
0
-5.89987e-13
-1.31198e-12
-7.42044e-11
1.51073e-10
6.40622e-12
0
-1.45226e-12
-1.51342e-11
-1.41941e-10
-3.68492e-13
9.14888e-12
4.35701e-13
1.21995e-12
-5.45248e-12
-2.14103e-12
4.35664e-13
0
-5.14404e-11
7.01621e-11
5.65266e-12
1.45769e-13
0
-2.41344e-13
8.42466e-11
-2.02345e-11
1.47494e-13
-8.78396e-12
-8.06261e-13
-6.52957e-12
-1.42578e-11
4.63174e-11
-4.65553e-11
-5.10727e-13
6.31416e-11
-7.30882e-11
2.933e-11
2.94941e-11
2.29446e-13
-5.13528e-11
-2.20649e-13
2.1819e-11
-1.92863e-13
9.46378e-12
-1.12914e-13
-9.93005e-12
-2.97966e-13
0
-5.02902e-13
3.8012e-14
1.05613e-13
1.00372e-13
1.01999e-14
-4.85478e-12
-5.474e-15
6.13139e-13
-4.46957e-12
-3.39361e-11
-3.31569e-11
3.2762e-11
-3.37358e-11
7.20808e-11
-7.20583e-11
-2.70177e-13
-1.47275e-12
5.08073e-13
8.93239e-12
7.81645e-12
-2.26264e-13
5.25379e-13
7.99079e-13
-3.5434e-13
4.9931e-13
5.44384e-11
1.96877e-12
-4.62573e-11
9.8809e-12
-4.12255e-11
-1.03645e-10
3.59352e-11
7.29413e-14
3.05872e-12
8.99341e-12
-1.60186e-11
4.03656e-11
2.2112e-13
1.581e-11
1.45061e-13
5.94622e-11
-7.48739e-11
5.09438e-11
5.04768e-11
7.28426e-13
6.60427e-13
5.13334e-11
5.61683e-11
-2.14113e-11
-1.91767e-12
-4.48697e-11
3.18551e-11
-4.05634e-12
-5.89946e-13
-1.38482e-11
-4.40831e-13
-7.10278e-13
-5.29077e-11
5.33346e-11
-9.76254e-13
1.99879e-12
-4.85912e-11
-1.89138e-11
1.23595e-11
-2.75611e-11
-2.18679e-11
2.75304e-11
2.16475e-11
-8.21525e-14
2.6388e-13
2.12209e-13
1.22413e-13
2.1166e-13
-4.47009e-13
0
6.49637e-13
2.1878e-13
-3.19931e-13
4.32721e-13
-2.10051e-11
2.23488e-11
2.07733e-11
-2.30987e-11
1.48972e-13
-6.47394e-11
-8.48605e-12
-9.6226e-11
-2.5316e-11
7.36252e-11
-5.98287e-11
6.08232e-11
5.46698e-13
-1.46529e-11
-1.48837e-13
-1.47387e-13
3.87485e-13
-1.88558e-12
1.73739e-12
1.35472e-13
-8.91972e-11
-2.91585e-11
9.22467e-11
-1.93446e-13
5.89419e-13
7.85166e-12
-4.9467e-11
1.35295e-11
8.61251e-11
-2.04963e-11
-8.24659e-12
9.38995e-13
-1.22489e-10
-6.32816e-11
1.05605e-11
3.66052e-11
3.64438e-11
1.89409e-12
-1.71502e-11
6.51013e-12
-8.43454e-12
1.69776e-11
-5.95218e-11
-1.756e-11
-1.72997e-11
2.35869e-11
4.74366e-11
4.027e-12
-1.87835e-11
-6.05739e-11
-1.74182e-11
4.18651e-11
3.14045e-11
-4.33779e-12
-1.9575e-11
-4.80182e-11
6.09854e-11
-1.25834e-11
-5.32137e-11
-4.34753e-11
1.48969e-13
-1.71656e-13
-3.30852e-11
-4.86765e-13
3.29309e-11
1.16407e-13
-6.01892e-14
9.49792e-14
6.53175e-14
1.48999e-13
0
2.49546e-11
-2.38245e-11
-2.47332e-11
3.40105e-13
-4.7157e-14
2.34969e-11
1.57453e-13
-8.89031e-15
1.48977e-13
1.4883e-12
-8.95012e-14
-5.95566e-13
1.21899e-13
-2.33459e-13
-1.55827e-13
-4.00485e-13
4.16533e-11
-4.23056e-11
5.95317e-13
6.18848e-12
-1.4018e-11
1.34888e-10
2.3194e-12
5.89797e-13
2.43226e-12
1.37897e-13
8.73374e-11
1.84111e-11
5.39188e-11
-1.03171e-11
2.20732e-13
3.43193e-11
5.20401e-11
-1.16225e-12
1.08425e-11
-6.06646e-11
8.54533e-11
1.45043e-11
7.22778e-12
-7.95171e-12
-1.31215e-12
3.28969e-12
1.95225e-11
-9.25222e-12
4.9856e-11
4.00795e-11
4.8349e-11
5.81308e-11
-5.76884e-11
-2.94798e-13
6.92746e-12
-1.06471e-11
2.3785e-11
-3.02101e-11
2.97739e-13
8.79863e-14
6.67648e-11
-6.69243e-11
-5.74922e-11
5.73771e-11
-1.28222e-13
0
-1.74783e-13
9.08267e-12
-7.44865e-13
1.08861e-13
1.22146e-12
3.26387e-11
-9.92861e-13
-2.74536e-11
3.27286e-11
-5.3648e-12
-3.2789e-11
1.49011e-13
2.42905e-11
2.38351e-11
-7.18599e-13
9.93827e-14
2.69345e-11
3.81418e-15
-2.68246e-11
5.49986e-14
-2.59311e-13
0
3.76684e-11
-1.13893e-11
4.94601e-11
9.02826e-14
2.10233e-13
-8.4508e-13
6.49663e-13
0
-3.33908e-11
4.48113e-11
2.94799e-13
-9.54797e-11
1.30781e-10
5.81139e-13
1.48061e-10
1.03729e-10
-1.31104e-10
-6.30001e-13
-5.90118e-11
7.81078e-12
-3.44554e-11
-3.65784e-11
5.17783e-12
3.03824e-11
8.72116e-13
1.44649e-13
-2.31363e-13
1.15297e-12
1.88279e-11
1.93817e-11
2.89316e-13
-5.88195e-14
-1.09866e-11
1.6514e-11
2.95113e-11
1.04703e-11
-1.1006e-12
4.19189e-12
4.87995e-11
-8.14389e-12
-4.42325e-13
-2.06339e-12
-2.01443e-12
-5.34337e-11
5.75075e-11
1.04234e-11
6.43874e-11
-7.55245e-11
1.05851e-11
-7.38523e-11
2.21416e-11
-1.21962e-12
5.35843e-11
4.72096e-11
5.06456e-11
-1.49017e-13
-4.50807e-12
5.07762e-13
2.64978e-11
-1.53245e-13
-2.22253e-11
-1.11146e-13
-2.48374e-11
1.39515e-13
2.4894e-11
5.0706e-12
6.69487e-15
-5.74963e-12
-4.80976e-14
5.792e-13
9.61969e-14
1.11339e-13
-1.28798e-13
-2.64541e-11
-2.66945e-11
-4.61971e-12
3.04434e-13
2.97993e-13
4.15187e-13
-8.74669e-14
4.38508e-11
-4.4591e-11
5.83284e-11
-5.94524e-11
-7.59926e-12
-3.04114e-11
2.7499e-11
1.19756e-12
-9.81959e-11
-2.35867e-12
-7.64115e-13
-9.47535e-11
3.86552e-13
1.68274e-11
9.59345e-12
-1.4574e-13
3.6894e-14
-2.25738e-12
-1.61949e-11
0
-2.75635e-11
-6.15232e-11
2.62926e-13
1.89506e-11
3.20584e-11
0
4.75481e-11
-3.80618e-11
-1.9423e-11
7.25449e-12
4.59143e-11
4.5992e-11
8.74727e-13
1.9403e-11
-3.61572e-11
1.47649e-13
-6.25847e-11
8.77372e-11
0
2.65835e-12
-3.57667e-12
-2.20773e-11
-4.83186e-11
4.69247e-11
-2.47502e-12
5.62505e-11
-5.38102e-11
1.17046e-12
4.28896e-13
7.51425e-11
0
-2.31724e-11
-8.93654e-15
2.30525e-11
-1.36125e-13
6.77076e-14
4.72083e-13
-1.9602e-13
-1.87096e-13
4.47521e-13
0
2.22152e-13
8.68336e-14
-2.58732e-13
1.13505e-13
4.35971e-14
-7.97687e-14
-1.06764e-13
-3.3163e-11
-3.32844e-11
1.22385e-11
-4.76715e-13
5.96371e-13
-4.4505e-13
2.69197e-13
-2.96224e-13
-9.70888e-13
3.36552e-13
-6.01176e-11
-2.59671e-11
4.44584e-13
6.48537e-12
-1.18942e-10
5.79647e-12
2.39085e-13
2.08754e-12
-1.13748e-12
-1.29654e-10
-9.05319e-11
1.4817e-12
2.9656e-11
-4.73743e-11
8.50383e-11
-3.70706e-11
0
-2.89825e-11
2.31293e-12
-3.21169e-12
-4.45587e-12
-1.09769e-11
5.85524e-13
6.70592e-13
4.94123e-11
2.88956e-11
-7.46511e-12
1.1746e-12
6.08054e-11
-8.00654e-11
4.09764e-11
-7.488e-12
-1.0078e-11
-4.42604e-13
4.60596e-11
-6.39574e-11
7.70788e-12
4.35788e-11
-1.47992e-11
-1.17675e-11
5.67747e-11
1.10562e-14
3.20928e-13
2.06419e-13
-8.76535e-13
7.54849e-13
-1.04513e-11
-1.20883e-11
-1.18894e-11
2.66845e-11
4.04785e-13
-2.67011e-11
-4.23844e-14
3.26343e-13
2.73615e-11
-3.88015e-13
-2.74698e-11
-2.98453e-13
2.42615e-11
4.67773e-13
-2.3936e-11
-1.24873e-14
-3.15957e-11
-2.24887e-13
3.13414e-11
3.78147e-13
0
1.49299e-13
7.02837e-13
-5.97851e-13
6.43708e-14
-2.04677e-13
1.29259e-13
-3.88052e-13
5.24621e-13
2.50578e-12
-8.65808e-12
7.14349e-12
-1.45794e-11
-2.87016e-11
3.51331e-13
-5.44892e-13
-3.70005e-13
-6.55894e-13
2.01792e-13
1.69515e-11
3.1396e-11
2.38659e-11
5.68704e-11
-1.438e-10
2.18022e-11
2.96408e-13
7.55275e-12
4.29225e-13
-1.24244e-11
8.01325e-12
-1.92484e-11
5.42035e-11
3.54599e-11
-2.0977e-12
-1.0813e-11
4.20525e-11
1.49729e-11
-9.86123e-13
2.54343e-12
1.88343e-11
1.03756e-12
-1.39897e-11
3.04236e-11
-2.90319e-13
-3.78546e-12
-8.92995e-13
4.12014e-11
4.16906e-11
-2.34346e-13
-2.26081e-11
6.0123e-12
-1.78107e-13
-4.68034e-11
4.81777e-11
2.50237e-14
-3.71819e-11
-1.49187e-13
-2.50485e-11
3.84328e-14
2.48282e-11
1.48234e-13
4.97232e-14
1.3335e-13
5.37528e-13
1.27568e-14
-7.46162e-13
-1.9653e-11
-9.68221e-12
4.26542e-11
3.23058e-11
2.95407e-14
5.48515e-13
2.79252e-11
-3.30835e-13
-2.83591e-11
1.48867e-13
-1.84606e-11
8.56248e-11
-8.41065e-11
8.20883e-11
-6.33215e-11
4.49705e-11
-4.51159e-11
9.05435e-13
6.09962e-14
-3.82528e-11
-1.48607e-13
-2.62375e-13
0
-3.04864e-11
3.54698e-11
3.04804e-11
2.78588e-11
-8.36425e-11
-6.89147e-11
3.95208e-11
-1.48355e-13
-2.41077e-11
-1.2273e-11
5.27615e-11
-1.19886e-10
6.94259e-11
-1.77861e-11
2.28545e-12
3.70202e-13
9.34459e-12
-8.89854e-13
1.52246e-11
1.36635e-10
1.56255e-11
-5.35969e-13
4.89889e-11
-4.25202e-12
-5.81197e-11
6.74916e-11
4.04815e-11
-2.66957e-12
-5.95494e-11
7.69273e-11
-1.74351e-11
2.90125e-13
-8.39455e-13
3.03387e-13
-1.06865e-10
-2.02779e-11
1.48288e-13
-4.45072e-13
-2.87842e-13
-2.46863e-11
-3.2163e-11
-5.51203e-12
5.99165e-11
-5.31318e-11
6.98624e-11
-6.13642e-11
1.02354e-11
-1.24821e-11
-1.57375e-12
-5.0997e-13
-1.70753e-12
1.11961e-10
8.60558e-13
-2.32435e-12
2.16982e-12
9.25273e-12
2.08036e-12
-5.35879e-12
-3.83401e-14
-6.18115e-11
6.2402e-11
-1.61566e-12
1.38592e-12
-6.01705e-11
5.98382e-11
1.04055e-13
-2.53101e-12
2.97691e-13
2.44736e-13
-3.6688e-14
2.29442e-11
-4.82215e-13
7.72591e-13
3.05267e-13
-2.34061e-11
-3.371e-13
0
-1.48471e-13
-2.84878e-12
-1.17385e-13
-4.26975e-13
-3.04371e-11
3.16251e-12
6.13923e-11
2.3715e-11
-3.33177e-12
4.00837e-12
2.92296e-11
-3.38322e-11
-2.99446e-11
3.32634e-11
6.91025e-13
-4.18689e-11
-1.89178e-11
4.26122e-11
-3.22816e-11
1.23135e-11
1.4817e-13
8.01362e-12
-1.48698e-11
-5.58003e-11
5.54321e-11
-1.02964e-11
1.03815e-11
7.50553e-13
1.31076e-11
-1.48147e-13
0
1.0917e-11
1.13018e-13
-6.57723e-12
7.08986e-12
4.76035e-11
-4.73833e-11
-1.89982e-13
-1.91013e-11
-2.66392e-11
-1.4798e-13
-2.95151e-13
-7.17363e-11
2.91564e-11
1.32514e-13
-1.04304e-11
1.44146e-13
-6.46692e-11
2.13941e-11
-2.95927e-13
3.01882e-11
4.76319e-11
-1.70865e-11
3.31145e-11
-2.965e-11
-1.6033e-11
-7.56318e-14
6.17999e-11
-8.70491e-12
-2.69298e-11
3.12319e-11
-1.94514e-11
-4.15569e-11
-4.09097e-12
9.84561e-11
-1.80604e-11
-1.06624e-10
6.04505e-11
1.75136e-11
-1.48007e-13
-4.35808e-11
-3.76171e-11
-4.79335e-11
4.77456e-11
-4.5807e-13
-4.63565e-11
4.52003e-11
-4.27256e-13
-4.75e-11
4.89175e-12
1.48374e-13
1.27907e-14
5.65681e-11
-1.03256e-12
-2.99926e-11
-9.77879e-12
-3.38679e-12
-3.40171e-11
3.24872e-11
3.48705e-11
2.90953e-11
2.63727e-11
-1.13545e-13
2.94908e-11
-4.45118e-14
-2.64039e-11
-1.03593e-12
-3.11163e-11
2.57986e-12
3.26619e-11
-7.41011e-13
-1.16948e-12
-3.00233e-12
1.78083e-13
2.63688e-12
-2.23355e-14
9.77254e-14
4.49409e-13
7.24754e-13
-1.48196e-13
-1.4812e-13
1.14651e-13
-1.559e-14
8.02876e-14
5.95975e-14
-4.50214e-14
1.12712e-13
-6.00478e-14
-3.46819e-14
-1.48112e-13
-5.18023e-12
-5.16035e-12
2.90747e-13
-1.96863e-13
3.08991e-11
1.07071e-13
-5.37386e-11
1.664e-14
2.28986e-11
0
4.91104e-11
2.47674e-11
-2.73566e-11
-3.3462e-11
2.7394e-12
3.35357e-11
1.01713e-13
1.90434e-13
-9.14354e-14
-2.95839e-13
-3.38684e-11
-4.20567e-14
3.40556e-11
4.91814e-13
-2.71891e-13
-6.0472e-13
-3.17468e-13
-3.09667e-11
6.69798e-13
3.06154e-11
4.4369e-13
-2.91487e-11
-6.08977e-13
2.97367e-11
-3.63609e-14
-2.14221e-11
4.10561e-14
2.12831e-11
-8.68004e-14
0
-1.47925e-13
-3.70312e-11
-1.23378e-13
3.61522e-11
-3.69676e-14
2.27992e-11
1.1773e-13
-2.23554e-11
-2.36814e-13
0
-2.38302e-11
-2.41074e-11
9.63301e-14
8.08604e-14
-3.75663e-14
-3.4847e-11
1.80822e-14
3.48139e-11
2.1324e-13
1.48019e-13
0
2.40424e-14
2.60477e-11
-2.28202e-13
-2.61704e-11
3.692e-11
4.03191e-13
-3.68737e-11
1.9935e-13
1.48122e-13
0
-4.53928e-13
-2.02171e-14
3.32292e-13
-3.92087e-14
6.65623e-13
4.92232e-14
-5.46365e-13
1.26754e-14
0
1.48052e-13
1.36342e-11
3.2415e-13
-1.36681e-11
2.04837e-13
-8.5193e-14
-2.42316e-11
-3.84743e-13
2.37258e-11
1.48051e-13
0
-6.30795e-13
2.25271e-11
5.60719e-13
-2.24612e-11
5.14959e-12
-1.89216e-13
-5.28907e-12
-3.6563e-14
1.48001e-13
2.36704e-11
2.35746e-11
1.47607e-13
2.27732e-13
-2.97885e-13
-1.3653e-13
-1.41962e-11
-2.22717e-11
1.43097e-11
2.23389e-11
2.30715e-11
2.32142e-11
-2.94747e-11
-1.41736e-11
2.62213e-11
1.08656e-11
-2.64885e-11
3.50833e-12
2.99976e-11
1.47898e-13
-2.41038e-11
-2.52118e-11
2.32137e-11
5.59372e-11
4.15827e-11
-3.19841e-11
-4.20042e-11
5.80921e-13
1.91996e-12
7.3943e-13
1.47875e-13
-3.30548e-14
-1.82278e-13
1.68116e-13
5.88457e-13
-6.50654e-16
5.09233e-13
-2.85263e-13
-8.72712e-13
-1.47888e-13
-3.09096e-11
-2.33833e-11
3.07068e-11
2.33198e-11
-3.13611e-11
-3.17273e-11
3.14558e-11
8.06329e-12
-2.85667e-13
2.38126e-11
1.47939e-13
1.16946e-13
-1.00652e-14
4.25037e-13
-1.19058e-13
-6.37056e-13
-1.26213e-13
1.53061e-13
2.45319e-11
2.42636e-11
-3.04876e-11
-2.89604e-11
3.04398e-11
6.16906e-11
5.08592e-13
-3.28678e-11
-6.38023e-13
1.8602e-13
-4.83966e-14
0
1.48043e-13
-8.28235e-13
-2.95295e-13
1.09428e-12
-2.62738e-11
-3.53175e-13
-3.54309e-12
3.71167e-11
2.98038e-11
-3.67166e-11
-2.4859e-11
-2.44825e-11
5.17132e-13
-4.35978e-13
-4.70612e-13
5.68537e-13
-3.45677e-13
-2.2272e-13
3.10326e-13
-1.47972e-13
-1.0356e-12
3.12821e-11
3.2259e-11
-4.87579e-13
-2.80532e-11
6.02359e-14
2.75034e-11
2.39299e-11
-1.13505e-13
-2.36713e-11
-2.51446e-12
2.3329e-11
7.46439e-12
-1.92391e-11
-3.52219e-12
1.93436e-11
5.25845e-11
1.51544e-13
-3.04261e-11
-1.47914e-13
8.87305e-13
1.17557e-12
1.44022e-13
-3.29296e-11
-3.4846e-11
3.28048e-11
3.50869e-11
-3.79764e-14
4.56643e-13
5.9157e-13
2.94267e-11
2.90967e-11
-3.86245e-13
-2.87999e-11
1.66681e-13
2.9044e-11
-2.57233e-11
2.27017e-11
2.89583e-11
-1.90771e-11
2.92786e-11
1.1735e-13
-2.92585e-11
2.51322e-14
1.06641e-13
-1.12642e-13
-2.33262e-13
1.71851e-13
2.11169e-11
2.08519e-11
0
2.43415e-11
-1.86244e-14
-2.52672e-11
1.46146e-13
-8.4705e-14
-2.88122e-14
3.04435e-11
-2.52313e-13
-2.9727e-11
-1.47907e-13
2.04518e-13
-9.37749e-14
-3.11392e-11
-9.84177e-13
3.11267e-11
3.70341e-13
-4.1586e-13
5.91198e-13
2.95836e-13
-1.47939e-13
-1.80239e-13
-5.65008e-14
2.81701e-13
-2.42233e-14
-8.4291e-14
1.16426e-15
-2.39919e-11
-1.48527e-13
2.38196e-11
2.95928e-13
-5.50371e-14
-3.86369e-13
-7.23966e-14
1.59585e-13
2.83285e-12
-6.90683e-15
-2.80041e-12
2.14659e-13
0
-8.94951e-12
-9.66574e-12
-6.3015e-13
1.00919e-12
-2.94315e-13
-9.08034e-13
2.11293e-13
-6.16031e-14
-8.47421e-14
-3.6957e-13
-7.38528e-14
-1.81912e-14
-3.02937e-13
2.54986e-11
-4.9538e-12
-2.60017e-11
5.01272e-12
4.64468e-13
2.36566e-13
2.2176e-13
-5.17546e-13
-9.48551e-14
-2.22711e-11
-1.66866e-13
-6.81015e-12
-2.43456e-11
2.96969e-11
2.43681e-11
1.97741e-13
2.21788e-13