/*--------------------------------*- C++ -*----------------------------------*\
  =========                 |
  \\      /  F ield         | OpenFOAM: The Open Source CFD Toolbox
   \\    /   O peration     | Website:  https://openfoam.org
    \\  /    A nd           | Version:  10
     \\/     M anipulation  |
\*---------------------------------------------------------------------------*/
FoamFile
{
    format      ascii;
    class       volScalarField;
    location    "1.3";
    object      gradTy;
}
// * * * * * * * * * * * * * * * * * * * * * * * * * * * * * * * * * * * * * //

dimensions      [0 -1 0 1 0 0 0];

internalField   nonuniform List<scalar> 
47104
(
4.37803e-13
4.37779e-13
2.88613e-13
-9.20384e-15
-4.45675e-13
2.97116e-13
3.2707e-11
3.07238e-13
-2.88822e-13
-2.47586e-11
6.04907e-13
4.36832e-13
7.08819e-13
5.09304e-12
-2.60679e-13
-5.6433e-13
-2.0767e-13
-1.75834e-13
1.29486e-13
4.5432e-13
2.29307e-11
6.87992e-13
1.87824e-14
2.0725e-13
5.22688e-13
1.61939e-13
-3.27707e-11
-1.04742e-12
-4.27947e-14
2.46344e-11
1.40244e-13
3.07703e-13
-9.81717e-14
-4.91051e-12
5.3992e-13
3.52401e-13
4.8656e-14
1.23291e-13
-2.60894e-13
-3.96739e-13
-2.33587e-11
-7.02995e-13
1.08597e-12
-1.17306e-13
1.16798e-12
1.43009e-13
4.38218e-12
3.83547e-13
2.52579e-11
-3.54963e-13
-3.68705e-13
2.23257e-11
-3.46931e-13
2.46253e-15
-6.18837e-14
-2.94533e-13
2.53256e-14
1.27164e-13
2.72697e-12
1.2004e-13
7.83019e-14
4.20223e-13
-8.54795e-13
-6.27105e-13
-3.34837e-11
2.44905e-14
-4.53008e-12
-6.19935e-14
-2.54835e-11
5.31517e-13
1.98883e-13
-2.21692e-11
1.49495e-14
8.51173e-13
5.05255e-13
2.51101e-13
-1.00785e-13
2.5423e-11
-2.90841e-12
2.63178e-11
-2.16963e-14
-2.43694e-13
3.93459e-13
1.60857e-13
3.33043e-11
-2.47399e-11
-1.58003e-14
-4.03943e-13
-2.34546e-11
-5.69162e-13
9.51284e-15
1.39735e-13
4.37336e-13
-7.34223e-13
1.48533e-13
-2.51026e-11
9.19447e-15
-2.62184e-11
-2.29649e-11
-2.6231e-11
-8.91003e-14
0
-4.1514e-11
-1.82057e-11
1.49178e-13
-1.49177e-13
3.40235e-11
2.22498e-11
-2.65832e-11
6.01163e-14
-1.21128e-11
-6.41123e-14
2.26345e-11
1.002e-11
7.40406e-12
-8.48847e-12
-1.03565e-11
-7.44497e-12
1.34759e-13
-4.41381e-13
-3.47331e-13
-1.14037e-13
3.89576e-11
2.83264e-11
-4.89917e-13
-2.49477e-13
-4.39499e-11
-2.97285e-11
3.02249e-12
-2.53033e-11
1.26798e-11
4.26237e-14
3.24349e-13
-5.24172e-11
8.44629e-13
6.88171e-11
-9.10005e-15
-6.62893e-13
9.93015e-15
-2.71865e-11
-2.27846e-11
-1.09048e-13
5.97049e-11
5.30975e-11
-5.90682e-13
-6.79376e-11
1.17144e-12
2.29084e-13
-5.98156e-12
2.20578e-12
-2.33838e-11
3.25962e-11
-5.91485e-11
-1.04917e-13
7.42399e-13
3.07957e-14
-6.04128e-13
-4.02086e-13
-2.64851e-11
5.08866e-11
2.30344e-11
-1.36748e-13
-4.91817e-11
-4.53451e-11
4.87808e-11
3.59999e-14
5.24048e-13
3.14203e-13
2.96124e-11
2.31349e-11
2.31916e-11
-9.4364e-12
4.90152e-11
4.5306e-11
-5.12404e-11
-1.06228e-12
1.8806e-13
-6.00728e-14
2.62329e-11
-4.72396e-11
-1.89758e-13
-2.20352e-13
3.02993e-12
-1.7121e-11
-1.12168e-13
-3.1146e-11
-3.18887e-11
-3.36682e-13
-5.6403e-14
-6.6359e-14
0
-2.32947e-11
-9.7039e-12
-2.9838e-13
4.47445e-13
-3.53493e-11
-2.31265e-11
1.19447e-12
2.98674e-13
2.31277e-11
2.09334e-13
1.37339e-11
-3.17668e-11
-3.18869e-11
-1.07305e-11
-4.47107e-13
1.04303e-12
-1.49134e-13
1.14936e-11
6.01426e-14
-4.92256e-12
-5.62137e-11
-5.87215e-11
-4.43349e-11
3.83175e-12
6.45519e-13
-1.93597e-12
-3.44167e-13
1.74851e-13
1.01345e-13
-2.28024e-13
2.88746e-11
-7.65771e-12
1.74018e-09
2.84776e-09
2.83101e-09
2.83854e-09
-2.40192e-10
-2.92132e-13
-2.36749e-13
5.2312e-12
-9.3534e-13
4.15999e-12
-2.98219e-07
-2.05353e-07
-2.05707e-07
-1.6872e-07
-4.398e-08
-7.57742e-13
-6.27754e-14
-2.64721e-13
5.93017e-13
-5.91065e-11
1.49851e-08
2.76667e-07
2.93038e-07
2.26776e-07
-9.38404e-09
-1.35326e-13
3.62899e-15
-3.59675e-14
2.38697e-13
5.80041e-11
-3.18014e-09
-6.21427e-08
-6.63156e-08
-5.04486e-08
2.23963e-09
2.95654e-13
7.05818e-14
4.6866e-13
-2.12956e-12
6.79379e-12
-5.08396e-08
-7.98606e-07
-8.34713e-07
-6.73303e-07
2.57099e-08
-7.93793e-11
-2.97838e-13
-6.64855e-14
1.46175e-12
3.8764e-13
1.03833e-07
1.8238e-07
1.8704e-07
1.66655e-07
-5.56731e-09
1.36529e-10
1.67203e-13
4.36654e-14
-2.98428e-13
1.03239e-13
-4.75927e-11
-2.94868e-13
-3.5406e-13
4.00998e-14
4.19559e-11
-5.70266e-11
6.88786e-14
1.49184e-13
-3.17871e-11
3.39909e-11
-1.78752e-11
1.78806e-11
-1.01328e-11
-8.93881e-13
2.41562e-11
8.35848e-12
-2.98375e-13
-2.51555e-11
-2.97288e-13
1.91966e-12
-7.30613e-11
-7.35442e-11
7.32518e-13
-6.14729e-11
-2.95299e-12
-1.5753e-11
-2.85741e-11
-2.50874e-11
-1.56083e-13
3.3529e-10
2.71192e-09
2.83539e-10
1.31964e-10
1.01077e-09
7.87549e-09
-2.84287e-11
-3.43332e-13
3.89268e-14
-5.9202e-13
2.31421e-08
0.000235928
0.000244568
0.000245839
0.000243515
0.000235457
7.28652e-09
3.71516e-12
7.53574e-13
-1.35891e-11
-8.86051e-07
-1.24328
-1.99866
-2.0101
-1.98173
0.315497
8.00335e-08
3.25315e-13
-2.57259e-11
-1.32156e-12
-2.56363e-09
-0.0110896
-0.0371805
-0.0387505
-0.0353367
-0.0401322
5.0467e-09
2.48931e-11
-2.99173e-13
1.69856e-12
-1.57868e-09
0.000708028
0.00220502
0.00231368
0.00208069
-0.0430965
-1.15411e-09
1.50212e-14
4.83062e-11
3.09128e-12
2.39579e-08
0.0299155
0.105547
0.108357
0.101592
-0.0451425
-1.9758e-08
-2.83086e-13
-2.27596e-13
5.48722e-11
2.37153e-06
1.17512
1.46972
1.47521
1.45703
-0.361575
-1.72358e-07
-1.51262e-13
-2.25764e-11
2.64375e-13
-2.17895e-07
1.57447e-05
1.46209e-05
1.45816e-05
1.47949e-05
1.20573e-05
-3.20339e-10
3.07003e-14
-1.48842e-13
-8.91552e-13
4.28076e-11
7.50966e-11
9.09634e-11
6.78239e-11
6.54282e-11
-2.80532e-12
3.81959e-11
2.977e-13
-2.80977e-11
4.45245e-13
1.02863e-12
-3.39083e-10
-4.0958e-10
-4.04106e-10
-3.16802e-10
3.04201e-11
-4.45151e-13
-2.82407e-12
-3.22872e-11
6.51133e-13
-3.58587e-10
-1.11822e-06
-1.72178e-06
-1.68302e-06
-1.79895e-06
8.04541e-08
-6.74007e-14
-3.47274e-11
2.74015e-11
5.54743e-11
2.3003e-06
-1.53775
-1.85966
-1.86315
-1.85487
-0.0202248
1.35855e-07
2.36076e-12
3.38748e-11
1.48161e-08
0.0398574
4.70043e-05
3.72901e-11
7.01543e-13
4.76607e-09
0.00110073
3.19457e-06
3.76477e-11
-9.1487e-13
-9.15085e-10
0.000251118
-5.31923e-07
-1.36519e-12
-2.70583e-12
-1.1581e-08
-0.00200651
-1.38778e-05
-3.94939e-11
4.05679e-13
3.20055e-09
0.00209054
5.57759e-06
3.75105e-13
-2.47676e-13
-5.15715e-11
-7.42815e-07
0.00263752
0.00313924
0.00314647
0.00310778
-0.000126612
4.19419e-10
5.98218e-14
-1.4865e-13
8.60476e-12
-1.54247e-11
3.25233e-10
3.79461e-10
4.05525e-10
3.97357e-10
-3.04195e-11
4.00681e-11
-1.48668e-13
-2.26033e-11
-1.4856e-13
1.60282e-11
-3.01095e-10
-4.00222e-10
-4.17724e-10
-3.18786e-10
4.44264e-11
1.87176e-11
0
-2.72131e-13
1.10635e-11
-7.41936e-10
-1.0083e-06
-1.80406e-06
-1.75451e-06
-1.90076e-06
8.63218e-08
-1.54498e-11
2.54281e-11
2.22802e-11
5.99712e-11
2.03237e-06
-1.58209
-1.94181
-1.9467
-1.93491
-0.0191143
1.445e-07
-2.24677e-11
2.52487e-12
1.65237e-08
0.0502457
5.55372e-05
-2.29677e-11
1.03724e-12
6.48218e-09
0.00140538
4.35378e-06
2.44896e-11
-1.20304e-12
-1.11165e-09
0.000180816
-7.10004e-07
2.36624e-11
2.16643e-11
-1.57008e-08
-0.00533204
-1.78854e-05
-6.6397e-12
9.87977e-12
1.23014e-09
-0.00400232
6.2897e-06
-2.41526e-11
-2.51367e-11
4.86286e-13
-6.92895e-07
0.00270636
0.00334634
0.00335688
0.00326308
-2.55199e-05
8.44062e-10
3.1431e-12
-9.66437e-12
0
-1.91107e-11
3.40203e-10
4.03637e-10
4.01661e-10
3.17692e-10
2.05881e-12
5.28832e-11
-2.9742e-13
-1.04154e-12
-9.96214e-12
1.67778e-11
-2.93154e-10
-3.86978e-10
-3.8124e-10
-3.04759e-10
7.80334e-12
7.88022e-12
2.52903e-11
-3.70199e-11
-1.21813e-11
-8.49189e-10
-9.63522e-07
-1.74698e-06
-1.69436e-06
-1.85237e-06
8.66426e-08
4.99635e-14
6.15457e-14
-5.38452e-13
1.0772e-10
2.04601e-06
-1.58412
-1.94552
-1.9506
-1.93842
-0.0191628
1.4548e-07
-2.59516e-11
3.79199e-11
1.63318e-08
0.0502582
5.61514e-05
-2.25289e-11
-3.35283e-11
7.02328e-09
0.00144127
4.52451e-06
9.09073e-13
-6.10104e-13
-1.00671e-09
0.000141956
-7.40085e-07
2.38829e-11
3.23956e-11
-1.60131e-08
-0.00278626
-1.82251e-05
3.01264e-11
-4.0997e-14
1.80422e-09
0.00216347
6.3034e-06
-2.88755e-13
-1.56904e-13
-5.89367e-11
-6.94621e-07
0.00271342
0.00335881
0.00337029
0.00330923
-0.000139706
8.71485e-10
-3.24013e-11
1.48765e-13
-3.04683e-11
2.79557e-12
2.75844e-10
4.16526e-10
4.16847e-10
3.00721e-10
-2.85516e-11
9.36678e-12
-1.48797e-13
0
5.14729e-11
7.95205e-12
-3.12661e-10
-4.01841e-10
-4.42773e-10
-2.53521e-10
1.85624e-11
-7.88461e-12
-5.9536e-13
7.45202e-14
6.35708e-11
-8.2854e-10
-9.58353e-07
-1.74373e-06
-1.69102e-06
-1.85014e-06
8.67897e-08
2.90546e-12
-5.40263e-13
-3.98468e-13
3.86948e-12
2.1734e-06
-1.58413
-1.94583
-1.95094
-1.93872
-0.019162
1.45587e-07
2.41339e-11
2.44327e-12
1.64592e-08
-0.00646319
5.617e-05
2.5578e-12
1.61722e-12
7.79168e-09
0.00230272
4.52844e-06
-2.31167e-11
-3.05236e-11
-8.37523e-10
0.000153539
-7.40847e-07
-9.9049e-13
-2.03294e-12
-1.594e-08
-0.00270689
-1.82466e-05
-2.65464e-12
3.03916e-11
1.88913e-09
0.00216336
6.30582e-06
4.25965e-13
-6.22037e-14
-4.70598e-11
-7.03838e-07
0.00271449
0.00336002
0.00337133
0.00330397
-0.000137741
8.1238e-10
1.34943e-13
1.48836e-13
1.79933e-11
-5.02021e-11
3.18709e-10
4.19129e-10
4.0299e-10
3.33632e-10
-8.5417e-12
1.05622e-11
1.4887e-13
-4.46712e-13
-1.42867e-11
1.10518e-11
-3.11585e-10
-3.88714e-10
-4.15804e-10
-3.29731e-10
1.62146e-12
7.88751e-12
-2.97795e-13
-5.66682e-13
-3.89901e-12
-8.10507e-10
-9.88896e-07
-1.78517e-06
-1.73519e-06
-1.88449e-06
8.66548e-08
-4.82913e-13
-2.57744e-13
9.44152e-14
3.10644e-11
2.21049e-06
-1.58359
-1.94439
-1.94937
-1.93735
-0.0191265
1.45064e-07
-2.38537e-13
2.71542e-12
2.10209e-08
-0.0100501
5.55825e-05
2.28881e-12
2.54073e-11
7.6602e-09
0.00221117
4.36298e-06
2.54106e-11
-1.16921e-12
-8.81535e-10
0.00017538
-7.07585e-07
-1.62368e-12
-2.74982e-11
-1.56276e-08
-0.00265953
-1.78796e-05
-2.70986e-11
5.06386e-13
1.79824e-09
0.00215976
6.30837e-06
1.04772e-12
8.54221e-14
8.35288e-11
-7.14127e-07
0.00271221
0.00335221
0.00336282
0.00326986
-2.53755e-05
8.41442e-10
-4.85014e-13
1.48892e-13
-8.47938e-12
-2.38645e-11
3.20686e-10
3.93005e-10
4.00427e-10
3.317e-10
-2.50517e-12
0
-7.44626e-13
-3.27642e-11
3.72134e-12
5.01456e-12
-1.29702e-11
-5.5596e-11
-5.21135e-11
-5.34922e-11
-3.24517e-12
-4.6742e-11
1.48938e-13
-3.05299e-11
6.848e-13
-6.32042e-10
-6.82674e-07
-8.04522e-07
-7.59011e-07
-9.32491e-07
7.41448e-08
-1.05665e-10
2.37961e-11
6.12701e-12
3.98813e-11
2.07436e-06
-1.5576
-1.88794
-1.89183
-1.88257
-0.0202879
1.28272e-07
3.12918e-11
3.04216e-11
1.04094e-08
0.0422005
3.93064e-05
-2.30365e-11
1.53663e-12
2.6609e-09
0.00114396
2.74389e-06
-3.14326e-11
3.07244e-13
-3.42545e-10
0.000155881
-4.4415e-07
1.62861e-13
4.80102e-11
-6.51285e-09
-0.00198723
-1.11219e-05
2.67998e-12
-1.36584e-13
1.38838e-09
0.00216961
4.72819e-06
3.14812e-13
-2.44431e-11
-5.90198e-12
-7.3167e-07
0.0023653
0.00266864
0.00267405
0.00265519
-0.000119595
6.16826e-10
-2.85961e-12
0
1.10115e-11
-3.83334e-12
8.94572e-11
4.60086e-11
4.81889e-11
4.22595e-12
-5.6777e-11
1.48859e-13
-4.46885e-13
0
5.95421e-13
-8.11328e-12
-3.11928e-11
8.85522e-12
-2.71456e-11
1.31163e-11
-8.40712e-12
-1.48874e-13
-2.68119e-12
3.10986e-14
-3.60994e-13
-6.77722e-12
5.03774e-09
5.14134e-09
5.06966e-09
5.07496e-09
4.04828e-09
-3.25592e-11
2.15119e-14
7.14285e-14
1.48818e-12
-6.23887e-07
-0.00130551
-0.001353
-0.00135465
-0.00135165
-0.00122583
4.26878e-09
2.55883e-12
1.09307e-13
-7.2237e-11
9.63478e-06
-3.78959e-08
2.82063e-11
1.60797e-13
-6.15367e-11
2.01102e-07
-2.80565e-09
-8.62505e-14
-2.3595e-11
4.86802e-11
5.51851e-08
3.81061e-10
-5.62271e-11
1.95352e-13
3.07717e-11
-5.4005e-07
1.00806e-08
3.828e-13
2.33123e-11
6.89732e-11
-3.9973e-05
6.61401e-08
2.80938e-11
-3.31933e-13
4.64405e-13
1.05663e-07
-4.03595e-06
-4.23222e-06
-4.24582e-06
-4.18604e-06
-2.33886e-06
5.82868e-11
-1.49917e-13
0
-8.48232e-12
-5.89776e-13
2.95778e-11
-3.74471e-11
9.14497e-12
1.36999e-11
9.29174e-12
-2.38187e-12
1.48971e-13
-6.10553e-12
-2.09853e-11
2.38811e-11
2.90917e-13
1.41849e-11
-9.11839e-12
-2.61747e-11
2.94762e-13
-2.05427e-11
1.4895e-13
-3.41874e-11
-7.60693e-11
-1.17035e-12
1.68466e-13
4.57195e-11
-1.8425e-13
2.16002e-11
3.02512e-13
1.94403e-11
-2.51845e-11
-2.79764e-11
4.85218e-11
-2.24567e-11
1.00548e-10
-4.72142e-11
-1.58728e-12
-2.92524e-13
5.8951e-11
6.03545e-13
-7.21757e-13
-2.42275e-13
6.51935e-11
2.54677e-11
8.16792e-13
2.49843e-11
-1.42497e-13
-6.66667e-11
-9.49375e-13
-4.54398e-11
7.77308e-14
2.6919e-13
-2.00177e-13
2.42767e-13
4.60495e-11
-2.31363e-11
-2.43082e-11
5.30543e-11
3.33801e-12
-6.75478e-12
-3.68927e-11
1.81427e-13
-5.24218e-11
-9.18912e-11
6.96981e-11
2.37223e-11
2.41749e-11
2.88377e-13
-4.7813e-11
-2.08902e-11
-3.48858e-11
1.73636e-11
-7.28993e-12
-3.34601e-11
-6.41376e-11
3.70817e-11
-5.95753e-13
-3.77941e-11
-5.18664e-11
-8.57885e-12
1.15778e-11
9.84281e-12
-2.90952e-13
-5.51307e-11
-2.08382e-11
1.48958e-13
-1.48902e-13
3.86902e-11
-4.14012e-11
7.26523e-13
3.80164e-11
-2.76075e-11
1.27838e-11
-4.41957e-13
8.33512e-12
-2.57662e-11
-1.25678e-13
2.09294e-11
-3.27488e-11
-2.98077e-13
3.70917e-11
2.09338e-13
1.33463e-11
-4.95514e-11
1.89004e-12
-4.14434e-11
2.23237e-13
1.19158e-12
3.36234e-13
-1.39957e-12
2.55572e-11
1.82152e-12
-2.88313e-13
4.29139e-11
-2.11366e-12
2.51167e-11
3.69907e-11
1.37874e-12
-3.48658e-12
-4.8649e-11
4.07724e-11
-9.42208e-14
-2.11036e-13
5.89732e-13
1.07613e-10
-3.51088e-13
-2.5136e-12
8.09648e-15
9.10986e-11
-5.81221e-11
-3.24684e-11
-1.07841e-12
-8.39968e-13
1.16822e-11
-1.71985e-13
9.20055e-13
-4.21611e-11
-1.17705e-12
1.10196e-10
-3.29521e-11
4.54142e-12
1.11733e-12
3.52361e-13
1.39685e-10
1.29099e-11
-4.98662e-11
-6.95527e-11
-1.59084e-11
1.07152e-11
1.92869e-11
1.05106e-14
7.14829e-12
2.97563e-13
-1.79694e-11
1.59788e-12
8.67165e-12
1.43101e-11
-8.71871e-13
4.83256e-11
-8.92898e-13
2.82987e-11
0
5.95208e-13
1.0018e-11
2.81844e-11
5.78062e-13
-1.44507e-13
-4.93827e-11
3.15227e-11
1.04181e-12
-4.46793e-13
5.58469e-13
7.79856e-13
-2.68727e-12
-8.47646e-14
-6.02803e-11
-1.33822e-14
-1.06418e-11
3.18113e-11
-1.93663e-12
-1.83384e-13
-1.65233e-11
0
-3.81819e-11
-3.63133e-14
8.34052e-11
9.78481e-11
-1.98197e-12
7.20131e-13
0
-3.52998e-11
-1.02118e-13
4.79754e-13
1.62731e-11
1.40836e-13
-2.67447e-11
1.62387e-11
-5.26912e-11
1.41581e-10
-4.19304e-13
3.46969e-11
1.04428e-13
5.03141e-11
5.07893e-13
1.49839e-13
2.64917e-11
-3.10856e-11
1.90609e-12
2.57354e-13
-2.95172e-13
6.59919e-13
5.26596e-14
1.17763e-12
-9.5373e-11
7.2932e-13
-3.27681e-11
3.15186e-11
3.69579e-15
-1.88206e-11
4.54975e-11
-6.0081e-12
7.34117e-13
2.91805e-13
6.73626e-13
-4.37241e-13
-7.30234e-13
1.4891e-13
-1.48773e-13
4.84511e-11
3.64515e-11
-4.40695e-11
1.14153e-11
-9.73122e-12
-2.94576e-13
-1.488e-13
3.18713e-11
4.46681e-13
-8.33318e-12
0
-2.90671e-13
-2.89151e-13
-9.68589e-12
2.46983e-12
-1.0312e-12
2.63425e-11
6.10622e-12
4.33057e-13
6.09361e-13
2.16879e-11
5.5543e-11
-2.6393e-13
1.93543e-11
9.13314e-13
1.37918e-12
1.3872e-11
-1.72728e-11
3.13183e-11
2.97772e-13
-1.07364e-10
-7.41728e-11
-1.1602e-10
2.82778e-13
-3.84303e-12
-9.89615e-11
6.19009e-11
-4.86169e-14
2.33851e-11
2.24609e-13
-1.09245e-10
-1.34306e-10
2.34167e-11
-3.09462e-11
4.38039e-11
-2.94938e-12
7.35887e-11
-5.1031e-14
-2.25768e-11
8.29476e-12
1.06056e-10
9.20028e-13
-1.18743e-14
-1.1751e-13
-5.24463e-11
-3.06912e-13
-9.98363e-13
2.27056e-14
4.37472e-14
-1.0563e-12
5.35112e-13
-4.55952e-11
-1.83282e-13
-7.69707e-14
-8.55776e-13
-5.50841e-11
-1.86784e-11
-3.47958e-11
-5.87161e-13
-5.71864e-11
-3.55764e-11
4.79421e-11
-3.22944e-11
-1.4891e-13
-4.46322e-13
8.54241e-12
1.0459e-11
9.39552e-12
0
9.58774e-12
-4.41876e-13
-3.42245e-12
-3.20209e-11
0
0
-2.94827e-13
2.91028e-13
7.82091e-12
-7.82044e-12
1.4547e-13
1.03167e-11
8.03735e-12
1.48946e-13
-5.08477e-15
5.67092e-13
2.39169e-11
-5.48049e-11
-1.62773e-11
-8.92521e-13
-8.17122e-14
1.06847e-12
5.78834e-11
-8.22539e-14
-2.54792e-11
4.23125e-13
1.66476e-12
-3.94616e-11
1.94531e-13
-3.96728e-11
-2.59258e-13
-2.34681e-11
-5.7025e-11
-2.81661e-11
-5.92694e-13
-5.85813e-14
-2.6832e-10
3.51613e-13
-1.44322e-13
2.53101e-11
-4.07025e-13
-1.09631e-10
-2.47927e-13
2.42031e-11
2.32372e-13
-2.51196e-13
-1.3252e-13
7.20731e-14
1.15963e-14
-2.85718e-11
2.24999e-12
-6.83467e-13
-3.41524e-14
4.00388e-12
3.78896e-13
9.649e-13
3.46012e-12
-8.7745e-11
-2.72871e-13
2.84287e-11
-2.02886e-13
2.84429e-11
-7.98583e-13
-4.11853e-11
2.20601e-11
1.56649e-11
1.31665e-12
9.12289e-11
-3.38448e-11
1.48925e-13
1.48788e-12
7.66222e-12
5.81811e-13
-2.30237e-11
-3.43186e-11
7.27251e-13
9.136e-12
-3.57168e-12
-3.39609e-11
-2.79993e-11
2.97705e-13
-2.95036e-13
0
0
-7.40699e-12
2.91569e-13
1.47512e-13
-3.76684e-11
2.97947e-13
-3.09023e-12
2.43011e-14
2.09183e-13
4.1011e-13
-3.80113e-13
-1.16005e-12
-2.33813e-12
-5.49265e-13
1.96828e-11
-1.66955e-13
2.81614e-11
8.92472e-13
-1.31836e-10
-3.56012e-11
2.26994e-11
1.93746e-12
4.07105e-12
-4.45683e-11
-8.33291e-11
-4.73315e-13
2.08741e-12
5.11483e-13
-1.81667e-12
2.24046e-11
-3.3882e-14
-5.16232e-13
-6.28921e-11
-4.10308e-13
5.27909e-13
4.52892e-13
6.38801e-13
6.29036e-11
-1.04794e-10
-8.85458e-14
2.10032e-13
4.61033e-13
4.4762e-13
-3.75836e-14
6.40679e-11
-4.37023e-13
6.65868e-13
4.98212e-13
-4.74604e-13
-6.43833e-11
5.58865e-14
-1.57879e-13
2.24552e-13
-1.20691e-12
4.23662e-12
-6.26439e-12
1.93431e-11
-1.76188e-12
1.93559e-11
1.81891e-13
-4.03945e-14
-5.9584e-13
4.748e-11
1.62235e-12
-2.87168e-11
-8.56766e-12
0
7.87097e-12
2.19744e-11
1.23561e-11
-2.97966e-13
2.50241e-11
1.48879e-13
2.95043e-12
-1.45701e-13
1.20407e-11
-8.41379e-12
-1.45683e-13
5.60537e-12
-8.04097e-12
4.32059e-12
5.3345e-14
5.29552e-13
-5.59967e-11
7.19309e-11
2.54293e-13
2.5509e-13
2.13357e-13
-6.2475e-11
-1.68722e-13
4.83256e-12
1.1354e-11
2.97807e-13
8.33849e-11
-5.26688e-11
-6.52405e-11
6.26439e-11
-3.12468e-12
9.32811e-11
4.73836e-11
4.61439e-13
-3.88936e-13
4.4077e-11
-2.56534e-12
1.09469e-12
-2.60156e-13
-3.70511e-11
-4.26531e-11
-2.68576e-12
-4.80822e-11
3.83811e-11
8.30134e-14
-5.13691e-14
9.22168e-11
-7.5562e-13
-5.86142e-13
-1.40848e-13
-1.88638e-13
7.38149e-14
-2.92543e-13
-3.83056e-11
4.66452e-13
-5.89111e-13
7.30908e-13
8.78653e-13
8.07143e-13
2.06677e-13
3.37337e-13
3.93231e-12
-2.07158e-11
2.14488e-11
-3.14524e-11
1.57127e-11
5.12497e-13
4.33914e-13
4.38985e-14
0
-2.66472e-11
-2.90518e-11
9.17588e-12
-7.25208e-13
0
-8.1561e-12
1.47472e-13
1.48896e-12
-1.49003e-13
4.09614e-11
7.59156e-12
-8.99258e-12
-3.11206e-11
-2.18479e-11
-1.96777e-11
2.73392e-11
-5.36588e-11
7.2949e-12
0
1.05661e-13
-7.29237e-13
-1.08343e-12
1.71232e-11
1.86664e-11
8.56419e-11
1.16821e-11
4.46382e-11
2.10655e-11
7.1991e-13
-4.08627e-11
8.9366e-13
-8.85359e-14
-9.56922e-13
2.87721e-12
-8.93601e-11
-3.11617e-12
-6.05451e-11
-3.01964e-13
6.50433e-14
-5.47952e-13
3.83888e-13
-1.33214e-11
5.20127e-12
-9.97958e-13
-2.78568e-11
2.73739e-13
-3.68269e-13
-6.45733e-11
5.16351e-12
3.69341e-13
-3.33585e-13
-2.13491e-12
6.04799e-11
-3.22681e-13
9.24232e-13
3.67535e-14
-1.3429e-12
1.44019e-13
-4.30619e-11
2.63164e-13
9.32252e-13
9.88774e-14
-8.48561e-12
-3.1888e-11
2.67874e-11
-5.4394e-11
2.19338e-11
3.10805e-11
1.59486e-11
-2.22075e-11
-1.45002e-11
5.5355e-11
1.00864e-11
3.90762e-11
1.48969e-13
9.22785e-12
-9.43072e-12
-5.32026e-11
0
1.89506e-11
-8.57639e-12
-1.72413e-11
0
3.24817e-11
1.48964e-13
1.48847e-13
-3.34514e-11
4.1272e-11
1.44573e-13
1.37348e-11
-7.70286e-12
2.81493e-11
7.7413e-12
4.46931e-13
1.34878e-13
-1.9236e-14
-3.20489e-11
7.41374e-11
2.91445e-13
2.99406e-11
6.55217e-13
-4.28068e-11
4.7506e-11
2.50199e-11
-1.07343e-13
5.95523e-13
-4.24459e-11
-5.83994e-11
1.86745e-12
-1.0259e-10
4.71449e-11
1.35409e-10
-4.62172e-11
1.69762e-14
1.57799e-13
-3.60094e-13
-2.89939e-12
6.41644e-13
-2.49873e-11
-1.70544e-13
-4.58882e-13
8.96484e-11
-3.75225e-11
8.63945e-14
-2.96588e-11
8.54293e-13
1.39275e-10
3.79065e-11
-3.61951e-11
2.8446e-13
-2.13938e-13
1.60019e-12
-4.84347e-13
-2.23234e-11
3.0025e-11
3.93815e-13
1.67261e-12
-1.11149e-12
3.67515e-11
-1.14005e-13
8.1649e-13
-6.32847e-11
-4.00485e-11
1.52371e-11
3.66976e-13
-3.34083e-11
8.98649e-13
-7.57841e-13
2.27778e-11
0
-8.92979e-13
2.26878e-11
1.08961e-11
5.16042e-11
-2.74644e-12
1.51092e-11
4.3609e-11
9.08065e-12
-1.49011e-13
-4.17261e-12
-8.93396e-12
1.01709e-11
1.45375e-13
1.44649e-13
-4.42649e-11
2.90812e-13
1.12047e-11
4.61638e-12
3.69583e-11
2.32369e-11
-2.78881e-13
-2.04383e-11
-3.36864e-13
-6.33555e-12
-1.59402e-11
2.41001e-12
-2.21007e-12
5.45957e-11
2.45556e-13
5.4351e-11
8.93301e-13
-1.81883e-12
-1.99312e-12
4.72325e-12
-1.01822e-10
2.31029e-11
-5.04001e-12
-1.13571e-10
-3.61321e-11
1.84282e-13
4.05396e-13
0
5.72281e-11
1.75303e-13
-2.5911e-11
7.28252e-13
5.89879e-13
-2.32874e-13
2.1998e-11
-2.82535e-13
-7.85911e-13
5.77452e-12
-3.91348e-14
-3.13625e-14
2.67551e-13
5.53689e-14
9.70444e-11
-1.14659e-12
7.38778e-12
3.40959e-13
-7.13434e-12
1.52881e-12
2.04911e-12
4.32717e-11
-6.7182e-14
7.03357e-11
-7.30228e-12
1.9989e-11
2.45428e-11
-5.31436e-11
-3.79335e-11
-1.70483e-11
-1.8942e-13
-3.01974e-11
0
-2.39686e-11
-6.18986e-12
-1.14828e-11
3.74591e-11
1.64877e-11
1.88953e-12
-1.47378e-13
-4.10985e-11
-4.39745e-11
-1.49135e-13
-1.16246e-11
9.29998e-12
7.2858e-13
-8.12367e-12
7.83403e-12
-1.45758e-13
9.59752e-12
1.49043e-13
2.65454e-11
2.43619e-11
-6.465e-12
-1.90902e-13
1.58669e-13
-5.83847e-13
5.41928e-13
-8.86462e-13
-3.7816e-11
-1.30084e-13
2.68097e-11
5.73788e-14
6.57951e-11
-2.16379e-12
-2.84846e-12
-7.1117e-14
5.71033e-11
1.11364e-12
1.68285e-11
2.71786e-12
-7.20662e-14
9.45404e-12
-6.56882e-11
-1.73889e-11
-6.13888e-13
3.01151e-11
-3.30306e-13
6.72025e-13
-2.11706e-13
6.48781e-11
-5.62111e-13
-6.78256e-11
-1.26283e-14
7.92779e-11
-6.62155e-11
-5.74009e-11
3.35077e-13
2.3892e-13
5.52848e-13
-2.18831e-13
2.79146e-12
3.53614e-11
-7.03686e-11
2.90809e-12
6.35898e-13
7.70319e-11
9.6317e-14
-6.15576e-12
-4.51678e-11
-1.66299e-11
-6.92908e-11
1.89859e-11
-1.38451e-12
-5.21536e-11
-2.52335e-13
-1.74221e-12
-5.96477e-13
1.29632e-11
-1.37265e-11
1.1656e-12
1.16039e-12
-1.2184e-11
2.91388e-13
9.74104e-12
1.60959e-11
-4.95256e-11
2.98535e-13
1.94048e-12
0
9.10098e-12
-9.80642e-12
-2.92744e-13
-4.40469e-13
-1.06715e-11
-1.00007e-11
3.73144e-12
1.3125e-13
6.29602e-11
-1.00812e-12
5.45098e-11
1.96048e-11
-1.12482e-12
3.22412e-13
-2.24245e-11
-4.52229e-12
3.29575e-11
-1.42724e-11
-6.3552e-11
-6.88882e-13
-7.19555e-11
-6.09808e-12
4.37756e-12
1.03111e-13
1.14766e-12
-2.11115e-11
2.94111e-11
-1.26324e-12
6.63726e-11
1.09858e-10
2.24884e-11
-3.78407e-14
1.40839e-11
-1.38608e-10
-6.26861e-13
-4.62436e-11
8.43813e-14
6.9045e-13
7.34843e-11
-1.51219e-10
4.64892e-11
2.29211e-13
4.00328e-13
5.71108e-13
1.84794e-10
1.74564e-13
-1.86971e-13
-2.45363e-11
8.6446e-14
1.96399e-12
6.42951e-11
-7.67198e-15
1.18699e-11
6.31904e-11
-4.84808e-11
-4.9438e-11
0
-1.66803e-11
-2.03803e-12
1.11165e-12
-1.69288e-11
-6.85286e-14
3.64143e-11
-1.02967e-11
1.03725e-12
5.23996e-11
-1.09761e-11
-1.46347e-13
-1.18883e-11
4.44505e-13
1.10452e-11
0
0
-1.01534e-11
-4.30109e-11
-1.4822e-13
1.00689e-11
0
3.17225e-11
4.465e-13
8.809e-12
-1.49211e-13
-1.76173e-13
5.68657e-13
-3.23727e-11
-2.6495e-13
-4.79369e-12
-1.08985e-12
6.39367e-11
1.29136e-11
4.75583e-12
2.34941e-11
-2.35463e-11
1.19492e-12
-1.39862e-13
3.5623e-11
-3.23352e-11
4.50946e-11
1.72042e-11
-1.79935e-11
-4.53552e-12
1.68994e-13
1.59237e-14
-8.84529e-14
-2.10717e-12
5.14109e-11
-2.33376e-11
-1.75183e-11
4.72703e-11
-1.25995e-10
-5.18171e-11
2.55066e-11
-4.37819e-13
-4.99495e-11
1.04722e-11
1.5429e-11
-2.71309e-14
4.06877e-11
1.67386e-12
-1.02271e-10
4.3378e-11
-2.60897e-11
-3.06e-11
4.99148e-14
2.9134e-12
-5.93323e-11
-2.78097e-11
6.55434e-13
5.75312e-14
0
1.41181e-11
2.1216e-11
-2.04688e-11
2.01739e-13
-2.0638e-11
-1.10693e-13
6.52859e-13
3.07326e-11
0
-3.3478e-11
0
1.48054e-13
-7.69872e-12
0
2.97592e-13
1.04504e-12
2.79065e-11
2.27796e-11
4.94295e-11
7.34118e-11
1.06807e-11
7.7107e-12
1.51259e-11
9.79092e-12
-3.0612e-11
-8.7838e-12
-2.26278e-11
2.31231e-11
7.74662e-11
2.95089e-11
1.78127e-13
-1.5622e-11
-3.17045e-13
-2.08992e-11
-5.41125e-11
8.97515e-14
2.32258e-11
-9.66528e-14
7.31398e-14
-6.82612e-11
-2.93831e-11
3.4825e-11
-7.99573e-11
1.69867e-11
3.09204e-11
5.94277e-13
2.24419e-11
1.83923e-13
-2.96371e-13
6.72945e-11
7.18568e-11
-1.19237e-11
-8.78245e-11
-7.72867e-11
1.22885e-10
-5.74103e-13
6.52627e-12
-9.96089e-14
4.65868e-11
-9.79177e-13
-5.42784e-11
5.31704e-12
5.84702e-11
4.62416e-11
6.5371e-11
3.34566e-11
4.28452e-13
6.55371e-14
-4.69348e-11
3.15751e-13
-5.50866e-11
-6.18104e-12
-2.07938e-13
-8.05791e-11
-1.15075e-10
-3.40247e-11
-2.95288e-11
1.53729e-12
5.17333e-13
-6.86088e-11
1.04335e-10
-1.2142e-12
-7.5526e-11
7.96103e-11
7.12054e-13
-5.99787e-11
1.36343e-12
-4.06428e-13
-6.21257e-11
9.23103e-11
-6.21575e-11
9.58805e-11
1.03804e-10
1.30036e-10
-9.6167e-13
6.06112e-11
-1.96848e-13
-1.63268e-12
1.40731e-11
-4.86489e-11
-3.54856e-11
-2.82175e-12
-1.09569e-10
5.94152e-11
2.43735e-13
-3.00538e-13
-1.68896e-12
-1.48846e-13
5.35796e-12
-1.33709e-12
8.30632e-12
4.41839e-11
-1.18619e-12
4.70187e-11
7.57749e-12
-2.08395e-12
0
4.45413e-13
2.9972e-11
-3.0523e-11
0
1.61383e-11
6.00827e-11
-3.21196e-11
-5.08461e-11
-6.46954e-11
-5.59688e-11
-2.72622e-13
1.10554e-13
3.22746e-11
-8.90698e-12
5.21324e-12
1.12895e-11
1.00208e-11
-4.11043e-11
-2.38164e-11
-2.76459e-11
-6.56493e-13
-2.96546e-11
2.87731e-11
4.06112e-13
-6.89506e-11
-2.28811e-11
4.04029e-11
-3.07456e-13
4.0748e-11
1.88898e-12
1.85851e-13
-1.62871e-13
5.45707e-11
-3.61197e-13
6.76662e-11
-7.27041e-13
6.89484e-11
-4.18303e-13
6.19863e-13
3.36551e-13
-2.99259e-11
2.6485e-13
-5.53052e-11
3.98989e-11
1.4516e-11
-3.51356e-12
-1.30822e-10
-1.29457e-12
2.67626e-11
2.62558e-11
2.21414e-13
3.11625e-11
4.3494e-13
-3.70245e-11
1.07379e-11
7.66383e-12
6.11411e-11
8.82313e-13
-1.26469e-13
1.52897e-14
5.79252e-11
-1.03275e-11
-9.8204e-14
-1.73351e-11
-4.63934e-11
9.76508e-13
-8.74866e-13
3.04625e-13
-3.50304e-11
2.78543e-13
-1.93616e-14
-4.21434e-11
3.49208e-13
4.89599e-11
-4.90927e-11
-1.17674e-12
1.98738e-12
7.75528e-14
-3.57649e-13
2.67771e-13
-5.74821e-11
6.40537e-12
-4.18362e-14
9.16062e-12
4.89822e-11
-9.51729e-12
2.98696e-12
-1.18155e-11
-4.56093e-11
1.46603e-12
-2.89468e-11
-1.4836e-13
-3.85345e-12
-2.26444e-11
3.49391e-11
2.88551e-11
2.95997e-13
3.12599e-11
3.41229e-12
1.18771e-12
-1.18562e-12
-4.44367e-13
0
2.66282e-12
0
1.47916e-13
-1.47938e-13
-1.48023e-13
-5.92489e-13
-5.92785e-13
3.8287e-12
-4.6892e-13
1.3001e-13
2.7573e-12
-2.70488e-14
3.07386e-11
8.13333e-14
-2.27987e-11
-6.90278e-13
-5.91183e-13
-2.44613e-11
2.44986e-11
-8.29162e-14
-2.64313e-12
-3.36284e-11
5.13366e-14
9.80391e-14
-4.52038e-14
3.67772e-13
-4.41352e-14
-5.18113e-12
-3.36363e-11
4.24935e-15
3.31731e-15
7.14874e-13
-3.09628e-11
-1.55384e-13
2.23631e-11
-3.08076e-11
-1.29971e-13
2.47372e-11
-2.38268e-11
-2.94873e-11
2.92734e-12
3.36033e-11
3.39657e-13
-2.14504e-11
1.19606e-13
-2.05582e-13
1.20187e-13
7.71371e-14
3.36863e-11
-3.65991e-11
-8.53407e-14
-1.17123e-12
5.43187e-14
2.25454e-11
5.75142e-13
3.10167e-11
9.624e-14
2.40691e-11
-4.77272e-13
2.92201e-11
1.40973e-13
-1.85109e-14
-2.27287e-13
-1.34853e-11
-3.53938e-13
-9.0924e-14
7.33331e-14
-2.24695e-13
-6.72405e-14
3.71334e-11
2.59168e-11
5.93707e-13
-6.07288e-13
1.4534e-11
2.61985e-13
2.65224e-13
5.03504e-13
-2.3706e-11
1.21386e-14
-4.09715e-13
1.83917e-15
-6.75991e-14
1.05121e-13
3.54988e-11
-4.5025e-14
-2.12049e-13
-3.13801e-13
-1.48188e-13
-1.48109e-13
-7.40029e-13
-2.6035e-11
1.47915e-13
1.47906e-13
-3.6241e-11
-4.43998e-13
0
-2.96396e-13
0
1.48005e-13
-1.42029e-11
2.29255e-11
-2.95791e-13
-1.47896e-13
5.02894e-12
2.39682e-11
5.92028e-13
1.48051e-13
-2.35886e-11
-2.88418e-14
-1.35989e-11
-1.45016e-13
-2.03783e-13
-2.11435e-13
1.10949e-13
9.70997e-12
-2.1746e-11
3.14069e-13
-2.30085e-11
-2.74891e-14
3.76758e-13
-5.21703e-11
-1.37621e-11
-3.31946e-12
-8.54768e-12
-2.99244e-11
9.00133e-14
-1.05533e-14
2.41749e-11
-2.32866e-11
-2.45186e-11
-2.25123e-13
3.08447e-11
4.16374e-11
-4.48071e-13
1.36238e-11
2.25574e-11
1.27934e-12
2.29765e-11
-1.20385e-13
-7.34259e-15
2.95114e-11
1.4327e-11
3.88891e-12
3.29827e-12
3.07986e-11
6.17716e-14
-5.16008e-13
-6.66943e-13
-7.49693e-12
1.58512e-12
1.89166e-13
-3.12984e-11
-7.2307e-11
-3.09833e-11
1.13625e-12
-2.38731e-11
-1.00159e-12
-1.90803e-13
1.17064e-13
-4.47285e-14
-9.40372e-14
2.86887e-13
-5.18482e-13
-3.60798e-13
-1.16166e-12
2.76463e-14
2.45257e-11
2.01556e-13
6.10565e-13
-5.62224e-12
-9.52382e-15
3.29953e-11
3.20281e-11
3.1702e-11
-1.88277e-13
2.39793e-11
6.56588e-14
5.22382e-14
-2.69516e-14
-7.53278e-13
9.28943e-14
-7.89912e-13
-2.6345e-11
-3.82135e-13
-2.98436e-11
3.68368e-11
-2.42977e-11
-1.48043e-13
3.01913e-11
2.81084e-11
-2.95797e-13
-3.2979e-11
-2.67677e-11
-4.437e-13
-2.94403e-11
3.68525e-11
0
-5.53408e-11
-3.16603e-11
7.3958e-13
0
5.91557e-13
-2.75076e-11
0
5.91681e-13
2.35239e-11
2.95944e-13
-4.81611e-11
-2.58977e-11
1.99395e-13
-1.89824e-11
-1.88233e-11
-2.21654e-11
-2.0228e-13
3.0799e-11
1.82968e-13
3.89282e-13
2.97911e-11
3.16461e-11
-5.91597e-13
-7.25383e-13
-3.27427e-11
-7.48799e-12
2.53418e-14
2.47171e-13
-2.35834e-11
5.40958e-13
-5.83595e-12
2.62274e-11
-3.54495e-13
1.87679e-11
-1.01992e-11
2.24697e-11
-2.56277e-13
-5.60147e-11
2.22407e-11
3.30999e-12
1.23505e-12
2.92001e-11
-5.15926e-14
-1.81994e-14
3.25414e-11
3.51348e-11
-2.12533e-14
-1.36867e-13
-7.31951e-15
2.02797e-11
2.96759e-11
1.92029e-13
2.54171e-11
2.66398e-13
2.90072e-11
-1.15659e-13
-4.25174e-13
2.56595e-11
7.28493e-12
-3.33665e-12
-3.41585e-13
-2.92876e-11
-1.70056e-13
-3.58482e-14
-3.14365e-11
-1.20642e-12
5.48082e-14
-8.02125e-13
-5.29961e-13
-2.09057e-11
2.39325e-13
-1.65627e-13
-2.49723e-11
1.21318e-13
6.29535e-13
7.44794e-14
2.28796e-13
2.2006e-13
-5.37388e-11
-2.48501e-15
-1.78021e-13
2.46167e-13
-2.05921e-13
-9.07357e-14
3.09875e-11
1.11905e-12
2.9318e-12
4.94726e-13
6.08715e-13
1.97012e-14
0
4.43819e-13
1.4791e-13
2.95779e-13
0
0
2.80996e-12
0
2.39672e-11
2.95943e-13
-9.83702e-12
-6.65729e-13
7.39659e-14
-3.69593e-13
2.42521e-11
-5.02791e-12
-5.17485e-13
-7.39032e-14
-2.2181e-13
7.37721e-14
-9.53921e-12
-1.40432e-12
7.39413e-14
-2.32907e-11
-8.87269e-13
-2.97242e-11
-2.46227e-11
-7.3885e-14
7.42186e-14
2.22501e-13
2.21045e-13
5.16808e-13
-2.95708e-13
3.34868e-16
-2.55851e-11
4.88055e-12
5.91776e-13