/*--------------------------------*- C++ -*----------------------------------*\
  =========                 |
  \\      /  F ield         | OpenFOAM: The Open Source CFD Toolbox
   \\    /   O peration     | Website:  https://openfoam.org
    \\  /    A nd           | Version:  10
     \\/     M anipulation  |
\*---------------------------------------------------------------------------*/
FoamFile
{
    format      ascii;
    class       volScalarField;
    location    "1";
    object      gradTz;
}
// * * * * * * * * * * * * * * * * * * * * * * * * * * * * * * * * * * * * * //

dimensions      [0 -1 0 1 0 0 0];

internalField   nonuniform List<scalar> 
47104
(
5.96396e-13
7.45367e-13
4.46795e-13
-3.71779e-12
1.48558e-13
0
-1.4871e-13
-1.48928e-13
-4.47202e-13
-1.49091e-13
-2.9813e-13
-1.48935e-13
-4.32377e-11
-2.1907e-11
1.03349e-12
-1.47641e-13
1.48019e-12
2.22871e-11
-2.81477e-11
2.51908e-11
-1.66788e-11
2.9715e-13
8.41981e-12
-8.77998e-12
-1.45444e-13
-1.5417e-11
8.48726e-12
1.47714e-13
-2.97142e-13
-1.04238e-12
-2.43865e-11
-8.88062e-13
0
-9.0697e-12
-1.89517e-11
1.99492e-11
-2.87925e-13
1.02429e-12
-2.48651e-11
-2.72106e-11
2.97099e-13
0
1.04717e-11
1.28244e-12
1.40674e-13
-6.75234e-12
-2.99233e-12
0
2.95259e-13
-2.85201e-11
-2.36203e-11
0
-2.03618e-12
1.42493e-13
7.59634e-12
1.40673e-13
1.16843e-11
-1.45438e-13
-5.63953e-11
-2.40643e-11
-2.34966e-11
1.09535e-11
-8.92622e-12
-2.5625e-11
2.49357e-11
5.6996e-13
0
1.06819e-11
-3.15265e-11
2.46842e-11
0
-5.94332e-13
1.16693e-11
8.04777e-12
5.27922e-11
-2.90868e-13
1.46325e-13
-4.43135e-13
1.48576e-13
-7.44609e-13
0
2.41268e-11
1.27768e-11
-7.4e-13
-2.95246e-13
-5.90501e-13
-8.88035e-13
-2.76345e-11
-1.4893e-13
-5.08316e-11
0
-2.98113e-13
-7.44526e-13
-4.4605e-13
1.48533e-13
-1.15858e-11
-2.45341e-11
7.44574e-13
2.385e-11
-1.49094e-13
5.58629e-13
8.76985e-13
3.15088e-11
2.28317e-11
-1.1265e-13
4.84061e-13
0
0
-5.97376e-13
-3.17536e-13
-1.91505e-14
-2.09485e-12
2.38749e-11
5.52264e-12
-2.78843e-12
-7.43062e-13
-4.4622e-11
-7.83151e-12
1.71323e-11
2.50679e-11
-6.8681e-12
3.85193e-13
-1.81763e-11
-9.19344e-12
0
2.95676e-13
-4.82362e-11
5.94152e-13
-9.47447e-12
-7.46501e-13
-2.40223e-11
9.13033e-12
-7.02819e-11
-2.63504e-12
1.74375e-11
-1.74221e-11
5.82403e-13
4.38982e-11
2.63502e-11
-5.96804e-13
0
2.64521e-12
-1.18314e-12
0
-5.26088e-11
-1.72255e-12
-4.98852e-11
-2.93228e-13
-1.26999e-13
1.49159e-13
-4.47528e-13
2.27941e-13
5.91341e-13
2.90365e-13
-5.97149e-11
-2.00676e-12
-7.77604e-12
4.98185e-11
-1.5579e-11
0
4.47698e-13
-4.58866e-11
2.66334e-12
5.82398e-13
-4.61361e-11
-5.75999e-13
4.01891e-11
8.80686e-13
-8.38162e-12
-4.47643e-13
0
-8.37864e-12
-8.91228e-13
-8.8384e-13
-2.7856e-11
2.93044e-13
2.93557e-13
2.95743e-13
3.83541e-12
-7.46597e-13
2.98711e-13
-9.16479e-12
-3.57291e-12
-2.1557e-11
-7.89392e-12
1.43397e-11
-7.4358e-12
-1.55186e-11
-1.05862e-11
-2.6882e-11
-1.9143e-14
-2.74949e-11
3.23961e-11
1.4919e-13
-2.6184e-13
2.65674e-11
-7.64202e-13
7.46544e-13
2.42308e-11
3.82396e-14
2.51026e-11
1.32996e-13
2.54113e-12
4.19161e-12
4.90879e-14
-3.4564e-11
-5.47561e-13
4.27984e-12
4.26886e-13
1.94487e-14
-2.31985e-13
3.19273e-11
3.97398e-11
1.37569e-11
-4.58616e-11
1.49957e-12
-5.02943e-11
-3.136e-11
3.81967e-11
-2.9132e-11
1.58726e-11
6.42331e-11
-1.03831e-10
6.29666e-11
7.42776e-11
6.40354e-11
1.21411e-10
4.99214e-11
-5.25603e-11
8.80165e-14
1.85059e-13
5.98057e-13
1.37433e-10
5.81322e-06
2.64038e-06
2.69773e-06
2.34242e-06
7.8566e-07
1.62656e-11
9.62071e-13
-4.10689e-13
0
5.75333e-11
2.63848e-06
-1.76327e-05
-1.8068e-05
-1.57115e-05
1.01481e-06
6.41433e-11
2.83317e-11
-2.4757e-12
-5.99818e-13
8.65995e-11
2.69742e-06
-1.8068e-05
-1.85352e-05
-1.60425e-05
1.02701e-06
8.57209e-11
2.37174e-11
2.398e-11
-2.36509e-11
1.17162e-10
2.34311e-06
-1.57117e-05
-1.60427e-05
-1.41993e-05
9.86402e-07
4.8311e-11
-2.4381e-11
2.32736e-11
6.18268e-11
3.90288e-11
7.85695e-07
1.0149e-06
1.02705e-06
9.86376e-07
-4.69327e-08
6.01276e-12
-3.13855e-13
1.25456e-13
-3.22302e-11
-1.08119e-11
5.57214e-11
3.9029e-11
1.6356e-11
2.98909e-11
1.83381e-11
5.11493e-11
2.389e-11
1.68665e-13
-7.67581e-13
2.7449e-11
4.31896e-13
2.37142e-11
3.70668e-11
2.42436e-11
-7.15311e-14
2.91162e-11
4.0866e-13
5.95397e-13
-3.43013e-13
-3.11002e-11
-2.29314e-11
4.60109e-13
-6.07761e-13
5.80836e-13
-2.49431e-11
3.61157e-13
0
-2.84911e-11
-5.91188e-11
1.27787e-13
-2.43975e-10
-2.5184e-10
-2.77841e-10
-3.5173e-10
-7.88939e-11
-5.01586e-11
-4.25581e-12
-2.5079e-11
-1.14461e-11
2.28941e-08
-3.00604e-05
-2.68596e-05
-2.67067e-05
-2.70225e-05
-2.94139e-05
-8.2843e-10
-3.54738e-11
4.21732e-13
-2.23924e-10
-3.00678e-05
-224.953
-292.945
-293.576
-292.057
-1.49507
9.6514e-08
5.6153e-14
4.76682e-13
-2.69586e-10
-2.6859e-05
-292.944
-404.412
-405.892
-402.147
-2.80667
-2.3102e-08
1.24228e-12
4.4926e-13
-3.27012e-10
-2.67078e-05
-293.576
-405.892
-407.453
-403.549
-2.81871
-8.67658e-09
3.86677e-11
1.93448e-13
-2.71714e-10
-2.70308e-05
-292.057
-402.147
-403.549
-399.973
-2.80456
-5.94591e-08
4.30933e-13
5.8702e-14
-1.24231e-10
-2.93694e-05
-1.49511
-2.80669
-2.81871
-2.80456
-0.53003
1.95937e-07
3.9005e-13
-4.91412e-14
2.96842e-13
-9.27752e-10
9.59673e-08
-2.34652e-08
-9.68197e-09
-6.58818e-08
1.95935e-07
-5.02851e-11
-1.19245e-13
-2.97683e-13
2.75623e-11
-3.21746e-11
6.07318e-13
-2.30493e-11
-8.29717e-14
3.7241e-11
-2.52928e-13
3.04669e-11
0
-2.51244e-11
2.77937e-12
-1.89956e-12
1.0158e-12
1.7524e-12
3.58258e-11
1.09842e-12
-4.37563e-12
-7.42217e-13
-1.93698e-14
-2.27187e-11
-1.48218e-12
3.36462e-12
6.11698e-09
1.44059e-08
1.43599e-08
1.38126e-08
-2.43948e-10
5.00605e-11
2.96583e-11
9.24747e-14
-5.18544e-11
-6.78892e-09
0.01383
0.0272794
0.0274596
0.0268883
-8.29006e-06
1.72257e-09
2.61372e-11
8.14312e-13
6.07363e-09
0.0138063
2.03964e-05
3.64394e-12
1.29819e-12
1.43353e-08
0.027275
3.22544e-05
1.378e-12
2.79027e-11
1.43595e-08
0.0274532
3.27126e-05
3.29367e-12
1.01965e-12
1.318e-08
0.0265911
3.02607e-05
2.63317e-11
2.28413e-12
-4.78342e-10
-1.02152e-05
-6.74573e-07
-4.08096e-12
1.30602e-11
2.96305e-13
1.74723e-09
2.03755e-05
3.22471e-05
3.26548e-05
2.87494e-05
-6.13432e-07
2.68187e-12
7.62501e-13
1.29189e-13
4.18101e-13
-2.71877e-11
2.84359e-11
-2.22906e-11
1.39818e-12
1.50988e-12
2.93478e-14
-2.10377e-12
0
1.22841e-12
-3.57439e-13
3.46276e-13
6.13076e-13
3.33759e-13
5.26157e-13
1.81847e-13
2.54275e-11
-2.75576e-13
-1.29363e-13
2.8388e-11
2.97265e-13
1.13639e-12
1.1707e-09
3.26956e-09
3.28594e-09
3.02829e-09
-2.38639e-11
-5.95499e-13
2.96843e-11
-4.44423e-12
1.41073e-12
-1.39262e-09
0.000549086
0.000868222
0.000844778
0.000857133
4.7171e-07
4.50145e-11
3.56101e-11
1.7535e-13
1.0896e-09
0.000506365
1.17797e-06
1.708e-13
6.96709e-13
3.24052e-09
0.000862117
2.0991e-06
-2.61883e-11
-3.57139e-11
3.35858e-09
0.00084689
2.19045e-06
-3.79123e-11
7.20172e-13
3.11223e-09
0.00137229
1.86414e-06
4.11458e-13
-1.97231e-13
1.20787e-11
0.000528834
-5.02373e-08
3.31234e-11
3.32862e-14
2.97643e-13
1.34523e-10
1.21256e-06
2.10216e-06
2.22294e-06
3.99278e-06
-6.96959e-09
1.80239e-12
2.65651e-13
-9.03989e-14
-3.13428e-11
-6.50615e-13
-2.48901e-11
5.00449e-11
2.65028e-11
-3.58553e-11
-4.37576e-12
-3.01933e-11
-1.09867e-13
-6.33856e-13
-5.16144e-11
-3.52555e-13
-9.47685e-14
-3.50928e-13
2.80795e-11
-2.42376e-11
-2.77393e-13
6.79363e-13
7.43833e-13
2.29815e-11
-2.38232e-12
2.69035e-13
2.79565e-10
8.62524e-10
9.52495e-10
8.8322e-10
-1.41265e-10
4.74336e-11
1.95596e-14
4.29856e-13
-2.04361e-13
-1.95631e-09
0.00023671
0.000298762
0.000249064
0.000320682
1.28292e-07
3.6975e-11
-2.63872e-11
-4.33939e-13
-3.1585e-11
-7.06331e-05
1.75308e-07
4.76642e-11
-4.90489e-13
6.56217e-10
0.000235087
3.10035e-07
1.7554e-13
4.87547e-13
8.75735e-10
0.000251715
3.29021e-07
-1.24784e-12
-3.02483e-11
1.01235e-09
0.000450663
2.70215e-07
-2.52364e-11
-2.48875e-11
-1.24117e-10
-1.24559e-07
-8.19765e-09
3.63908e-12
-1.30733e-11
-5.96606e-13
-5.95571e-12
1.76867e-07
3.10829e-07
3.4658e-07
5.73078e-07
-3.02081e-08
-1.50566e-12
-3.8726e-13
4.07502e-13
1.36185e-13
-2.46987e-11
-2.73438e-11
2.88412e-11
4.56921e-13
5.10807e-13
1.2336e-13
-2.66407e-11
-3.87757e-14
-5.95434e-13
4.7263e-12
-5.29504e-13
-5.52903e-14
-6.4319e-12
-8.45739e-13
2.50558e-13
-7.6805e-13
2.2701e-13
0
9.74719e-14
4.17195e-12
-4.30619e-13
1.78505e-11
2.07287e-10
1.94847e-10
2.42944e-10
5.68744e-11
-9.46684e-11
-2.58976e-11
3.63701e-11
-4.78592e-11
-1.31533e-09
0.000182393
0.000236184
0.00018188
0.000259931
-3.33102e-07
5.12001e-11
4.77351e-13
-1.60775e-13
-6.80636e-10
0.00375097
-1.354e-08
2.04051e-13
-1.87712e-14
-1.72742e-11
-3.06821e-05
-3.84939e-08
2.55961e-11
6.07165e-11
2.19152e-10
0.00018085
-4.11734e-08
2.56555e-11
-5.45268e-13
1.71312e-10
0.000266534
-3.60262e-08
-7.25842e-13
-2.21255e-13
7.23002e-11
-3.2813e-07
1.82655e-09
-3.2895e-11
1.4552e-13
-6.27124e-12
3.25237e-11
-1.91012e-08
-4.07971e-08
-9.04186e-08
-1.62114e-06
6.0331e-08
-9.03945e-13
-3.73173e-13
-1.48836e-13
3.09371e-11
3.71142e-13
2.58451e-11
-3.30407e-11
-2.62771e-11
-4.10353e-13
4.08181e-12
-5.49419e-13
-5.9548e-13
1.48904e-13
4.87353e-11
1.82829e-13
-2.9839e-11
-2.96036e-13
-2.85844e-11
2.37199e-11
-3.30601e-14
3.30961e-11
-5.9559e-13
-3.31925e-11
-6.58749e-11
3.39007e-13
-4.25509e-10
-1.42964e-09
-1.51684e-09
-1.3533e-09
2.81208e-11
4.68929e-11
-4.8067e-13
-3.10514e-11
4.93922e-11
1.30793e-09
0.000111789
-6.73421e-05
-0.000139287
-2.44028e-05
-6.37269e-07
-3.59053e-11
2.43502e-11
-2.57106e-11
2.15308e-10
-0.00124325
-1.05452e-06
6.66996e-12
-2.26156e-15
-1.23367e-09
0.000165096
-2.08912e-06
-3.39992e-13
-2.56695e-11
-1.43996e-09
-0.000133584
-2.1706e-06
-1.42754e-12
3.0707e-11
-1.29012e-09
-2.3035e-05
-1.80974e-06
8.97285e-14
2.44611e-11
4.47151e-11
-5.13467e-07
3.17546e-08
3.7643e-12
-2.14435e-13
6.21246e-11
-5.18197e-11
-1.05673e-06
-2.08816e-06
-2.13534e-06
3.49263e-07
1.13111e-08
0
7.16343e-15
-2.97783e-13
6.51465e-15
2.77695e-11
3.2762e-11
-2.92808e-11
-3.69985e-13
-3.87479e-11
-3.36928e-11
-9.75179e-14
-1.48925e-13
-4.46784e-13
-4.29291e-12
2.85972e-13
2.44215e-11
5.90934e-12
2.30441e-11
1.5394e-13
-5.00425e-13
4.46816e-13
-2.97877e-13
1.38676e-13
6.52797e-11
-1.89796e-12
-1.06766e-09
-2.1954e-09
-1.96359e-09
-2.36826e-09
4.21765e-11
0
-3.56808e-12
1.2824e-13
-5.57822e-13
-2.29311e-09
-0.00871665
-0.0206579
-0.020894
-0.0202656
-5.0311e-06
-1.24687e-10
-2.41043e-13
9.49302e-14
-9.73672e-10
-0.00816243
-1.50042e-05
-2.5085e-13
8.53468e-14
-2.19831e-09
-0.0205837
-2.53352e-05
2.87642e-11
-2.51486e-11
-2.08445e-09
-0.0209066
-2.57461e-05
-2.48018e-11
-2.4314e-11
-2.47953e-09
-0.0202708
-2.34823e-05
-2.84147e-11
1.44864e-13
1.78537e-11
-5.39301e-06
2.64925e-07
-1.96092e-13
-4.8782e-13
-5.52502e-11
-9.62904e-11
-1.50136e-05
-2.53344e-05
-2.57195e-05
-2.3171e-05
2.43022e-07
-6.02334e-13
1.87283e-13
-2.9786e-13
4.9791e-13
-1.58342e-12
2.91912e-11
-1.62517e-11
2.43224e-14
6.51122e-13
4.80627e-13
-3.21996e-14
8.9377e-13
3.52962e-11
2.24884e-11
6.43157e-13
2.95211e-11
1.29966e-12
1.79768e-13
-6.56099e-14
-5.54468e-13
-3.30131e-11
1.48955e-13
6.17192e-11
-5.96154e-13
5.76372e-13
-8.04453e-11
-3.50106e-11
-3.82503e-11
-4.25875e-11
5.13272e-12
2.08983e-12
8.53007e-13
3.09868e-11
-6.06209e-11
-7.14135e-09
0.000127279
0.000118176
0.000117616
0.000118838
0.000119022
8.17721e-10
-5.01675e-11
2.62472e-11
-2.61257e-11
0.000127153
-1.05636e-07
-3.15464e-11
-2.13899e-13
-4.58981e-11
0.00011826
-1.28206e-07
-1.43054e-13
2.56368e-11
-8.86617e-11
0.000117221
-1.28353e-07
4.45017e-13
-2.35397e-13
-2.81969e-11
0.000118931
-1.26842e-07
-2.41291e-11
-5.04714e-11
4.60558e-15
0.000119139
1.25533e-08
-4.19193e-11
1.5852e-13
-6.50798e-11
7.98708e-10
-1.05653e-07
-1.28151e-07
-1.28261e-07
-1.2655e-07
1.2816e-08
6.02208e-13
-3.01349e-13
-7.44725e-13
-2.90353e-11
-4.07593e-11
-5.54751e-11
-1.5026e-13
-8.48748e-14
3.76831e-11
1.37539e-14
-2.42195e-11
-1.48971e-13
0
-2.93846e-11
2.45567e-11
-2.42466e-11
-2.82649e-11
-2.21556e-11
-1.30502e-11
1.68007e-12
-7.49316e-13
-1.4895e-13
-3.43636e-14
-2.98101e-13
1.03857e-10
-2.92924e-13
-1.17175e-12
-7.03665e-12
-5.8512e-13
4.21735e-13
-6.48038e-11
-2.27567e-11
8.41272e-14
6.02251e-11
-1.22628e-12
1.10626e-10
1.17604e-12
-2.35599e-12
5.87198e-13
-9.03653e-11
-3.97292e-13
-4.2094e-11
6.85214e-14
-5.76934e-11
-1.16688e-10
1.76018e-12
-2.70376e-13
3.80619e-11
0
1.37552e-10
-5.58653e-11
-2.86e-11
-2.26139e-13
-2.93277e-13
7.24735e-11
1.41242e-10
-8.57311e-13
5.95198e-11
4.35937e-11
2.22444e-10
1.31539e-11
-4.47884e-12
-1.39785e-12
1.10534e-11
1.51322e-10
-1.47941e-12
1.96557e-13
-9.21807e-12
6.51278e-11
-1.71076e-11
1.71549e-12
4.75507e-11
-4.66278e-11
7.11195e-14
1.85536e-12
0
-2.88168e-11
1.48938e-13
2.26499e-14
1.49582e-12
-2.90616e-11
2.36654e-11
5.70366e-14
-5.34719e-13
2.91151e-11
-5.66483e-13
-1.10136e-13
-3.5141e-11
-2.31704e-11
-6.17735e-13
2.5522e-13
-1.55785e-12
-3.53873e-13
2.36075e-11
-2.4413e-11
1.7954e-13
-1.93487e-14
-2.90224e-11
2.98121e-13
-1.01847e-10
2.92849e-12
-5.85626e-13
-3.83922e-11
2.92439e-13
-2.33638e-13
1.13499e-10
-1.34119e-12
4.64956e-13
-5.18843e-13
-1.83876e-12
4.68473e-12
1.03683e-10
5.90812e-13
9.83264e-11
2.02171e-12
-8.48383e-11
2.56141e-11
-2.16813e-11
5.88338e-11
2.59834e-13
1.45333e-13
-3.66545e-11
9.37691e-13
-2.92816e-13
2.60132e-10
-6.25326e-12
-2.70045e-11
-7.04418e-14
-2.93059e-13
2.8356e-11
-6.50023e-11
-1.12935e-12
3.01529e-13
-4.29869e-11
-7.88889e-11
1.05156e-12
2.36099e-11
-6.56821e-12
-1.05738e-11
-2.83712e-13
6.50731e-11
3.82622e-11
8.37266e-14
5.34619e-11
8.74862e-13
3.48999e-13
-4.79781e-11
4.76922e-11
2.53771e-13
-2.26894e-12
5.00596e-13
-3.33904e-11
8.93536e-13
2.91822e-11
7.51127e-11
5.7336e-11
-3.47397e-11
2.07441e-14
-3.02225e-13
3.36865e-11
2.40583e-11
-1.23032e-12
-7.44475e-13
2.98626e-11
-2.45067e-11
4.67747e-14
2.93715e-11
2.87039e-13
1.28333e-11
-8.35409e-14
-1.50549e-11
-7.89333e-12
2.67449e-13
0
-1.1401e-12
5.3578e-11
6.47226e-11
4.60198e-11
2.92478e-13
-5.02874e-13
-5.01804e-11
2.65217e-11
1.43895e-13
-6.49295e-11
0
5.41937e-12
-1.45404e-12
-9.1602e-11
-5.88924e-13
-8.88788e-11
8.48068e-11
1.7916e-11
3.14257e-11
5.85467e-13
1.13852e-12
3.93971e-13
-1.14734e-13
-1.41728e-11
0
6.45656e-13
-1.33344e-11
-1.08653e-13
-4.86324e-14
-1.17243e-12
0
5.27149e-11
3.60571e-13
-3.53878e-11
-2.13497e-11
7.5966e-11
2.97764e-12
3.38904e-11
1.28719e-12
-1.37874e-12
1.09837e-10
-1.02506e-11
-7.34914e-13
9.82902e-12
-5.19656e-11
-4.28277e-13
-1.28723e-12
-5.51095e-11
-7.51572e-11
-7.4272e-12
4.91886e-14
-1.20558e-12
2.84136e-11
1.4891e-13
-2.88815e-13
-3.30547e-13
-1.49263e-12
-3.67434e-13
-5.2567e-14
6.52323e-13
-2.93856e-11
6.57213e-13
-3.30628e-11
-2.97787e-13
6.78157e-13
-2.30338e-14
-2.04199e-13
9.8125e-14
-1.94966e-13
-2.33785e-11
2.49376e-11
-1.37287e-13
-1.29578e-13
-3.54588e-13
-5.96202e-13
-3.47062e-13
-5.68224e-11
-6.73487e-11
-5.86164e-13
1.90092e-11
-7.98945e-12
5.97323e-13
7.34055e-13
-5.4033e-13
6.58399e-11
0
-1.04933e-13
-5.89841e-13
5.90948e-13
7.06675e-12
-1.16721e-10
2.7444e-13
-4.40861e-13
-4.74558e-12
-5.6497e-11
3.53242e-11
5.39768e-11
7.82388e-12
-5.5085e-13
1.75693e-12
-1.17635e-10
7.53597e-11
2.73125e-11
-3.99847e-14
-6.41806e-11
1.18188e-12
-5.23473e-11
-3.86991e-12
-1.41064e-13
1.95919e-11
0
-6.12657e-11
1.06727e-13
2.88085e-12
5.19509e-13
-4.61733e-12
-1.70249e-11
1.89405e-13
-5.40811e-14
-2.68862e-12
-3.45522e-13
1.06179e-12
-1.21373e-11
7.57833e-11
2.07661e-11
3.7745e-14
-6.08824e-11
3.34863e-11
-4.4673e-13
-3.6702e-14
-3.71745e-11
-3.39504e-11
1.00066e-11
-2.6463e-11
1.28174e-12
-5.20942e-13
2.1839e-13
-3.33613e-11
7.4452e-13
-7.30244e-14
-1.67561e-13
-1.4242e-13
-1.36345e-13
-2.59663e-13
-2.36247e-13
-3.53178e-13
4.5173e-11
8.04306e-12
-2.8962e-11
1.19218e-12
-3.116e-13
2.63561e-12
-5.85617e-13
0
-1.93008e-11
8.3558e-12
2.98561e-13
4.63238e-13
-3.91139e-12
-1.02278e-12
1.22995e-12
1.09765e-10
1.26698e-10
-5.90359e-13
5.88382e-13
-1.22202e-12
2.51799e-12
2.42484e-11
-3.15003e-11
1.2766e-10
1.38684e-12
-5.37891e-11
1.86369e-13
-2.46529e-11
1.17118e-12
1.17859e-12
6.29515e-13
-5.61702e-13
-5.1368e-13
1.137e-10
1.02721e-10
-8.0447e-14
7.33111e-13
-3.13186e-13
-7.04691e-11
5.29442e-12
5.77471e-11
-9.44646e-14
5.04751e-14
5.92124e-11
-1.45997e-10
3.67455e-11
1.11825e-13
6.50727e-13
1.19453e-12
1.52886e-11
8.51614e-13
6.83497e-11
-2.16948e-12
4.32267e-11
-4.52508e-11
1.26822e-10
1.96135e-13
2.7844e-13
3.07738e-11
1.24687e-13
-2.24986e-11
1.22743e-13
2.91022e-13
-3.20445e-13
1.28668e-11
-1.942e-14
3.30672e-11
4.46798e-13
-2.20099e-13
-4.54987e-13
2.01375e-13
-1.2205e-13
1.36087e-13
1.21013e-13
-6.58452e-12
3.04008e-14
-5.9783e-12
2.64074e-11
5.09606e-11
-1.48564e-12
-1.46644e-12
5.87719e-13
0
-2.93392e-13
-1.47122e-12
8.95401e-13
-3.33873e-13
3.23675e-14
1.21437e-13
-6.10411e-13
4.81565e-11
-1.24666e-10
-5.91663e-13
-1.10358e-10
-1.3264e-10
-4.02879e-12
5.8806e-13
6.4131e-11
-7.15549e-11
-1.29975e-10
6.98144e-11
2.91058e-11
-5.10772e-13
-1.76306e-12
-3.545e-12
-4.79627e-11
-3.77232e-14
-6.88371e-13
-4.82331e-11
1.18331e-12
5.48536e-11
4.4174e-11
-5.72305e-13
7.01168e-11
-5.90101e-13
9.47463e-13
-6.37563e-13
2.82274e-11
-5.91714e-11
9.27313e-11
3.82791e-11
-3.02316e-13
1.37104e-13
-5.96863e-13
-1.31677e-11
6.67041e-11
7.9643e-11
-3.62223e-13
-5.6933e-11
4.50787e-11
-6.31888e-11
2.81665e-13
-5.76403e-13
-2.85006e-11
-2.30288e-11
-4.67918e-13
2.42179e-11
2.63895e-11
-6.84881e-13
7.55934e-13
6.03834e-13
3.44151e-11
1.48953e-13
6.05093e-13
7.83482e-13
1.0069e-13
1.02178e-13
4.04313e-13
-2.25582e-11
2.36105e-11
-3.0182e-11
3.17312e-13
7.13825e-11
-5.21799e-11
8.0407e-13
-8.8044e-13
2.93901e-13
-5.1772e-11
2.93462e-13
3.94364e-13
-1.19487e-12
-3.92155e-13
3.79634e-12
-3.81856e-13
-6.13792e-13
-6.56996e-13
9.60919e-11
-1.70127e-12
-9.4324e-11
-1.58382e-11
1.7571e-11
9.152e-13
1.26699e-13
8.80321e-13
1.61058e-12
-1.37427e-10
1.57104e-13
-5.85036e-14
-8.81652e-13
9.07179e-11
9.7901e-11
3.43706e-13
-2.76318e-11
-3.52978e-12
1.29342e-12
-5.44208e-11
6.44725e-12
-1.97899e-13
5.86907e-13
-3.29436e-12
1.14723e-13
-3.19652e-13
-2.71291e-11
6.2898e-12
-2.37415e-10
2.84733e-13
-3.95183e-11
-7.26206e-13
-2.7184e-11
-1.95331e-11
-1.19476e-10
-1.6447e-11
6.64441e-11
9.75158e-13
2.79986e-13
6.35985e-11
-3.34569e-11
1.48979e-13
-3.05187e-11
-9.48427e-14
-1.10874e-11
-5.37143e-13
1.43767e-14
1.03793e-13
-1.30856e-11
-1.92417e-13
3.36853e-13
-5.95802e-13
2.62184e-13
2.53879e-11
-2.40372e-11
-3.5734e-13
-2.37562e-11
-1.24155e-13
7.01867e-12
5.37341e-14
5.79058e-12
-2.6355e-11
-2.98181e-13
-6.34884e-13
-6.32674e-11
-2.92838e-13
5.04107e-11
5.84942e-13
-7.48303e-11
6.12278e-11
1.10385e-12
2.02423e-13
1.09162e-13
6.13609e-13
3.89859e-12
0
-3.53873e-12
-1.21679e-10
1.28445e-12
6.0252e-11
2.51508e-11
-3.76103e-11
4.8616e-11
-9.20364e-13
7.13906e-12
-2.49206e-13
9.06704e-13
0
-1.17751e-12
-5.0201e-11
2.25686e-13
5.57897e-13
2.93073e-12
1.17957e-12
8.25346e-13
-3.91435e-11
-2.94842e-11
-5.84914e-13
-9.11113e-11
6.28765e-13
-3.67673e-11
8.24925e-13
-5.83348e-12
-9.88159e-14
-5.11363e-11
-2.30933e-11
1.09038e-13
-2.32966e-11
4.99689e-13
5.11964e-11
-6.34138e-11
-1.32535e-10
-9.24197e-12
-8.46799e-13
-1.42555e-10
-3.98828e-13
2.97938e-13
2.77268e-11
2.29973e-11
2.9186e-13
3.39637e-11
-6.77959e-13
6.86153e-12
3.35969e-11
-2.59612e-13
-3.88352e-14
-2.44301e-11
1.74971e-13
-7.62288e-13
-3.86474e-13
-5.26176e-14
2.71218e-11
2.27289e-11
-2.39222e-11
-1.86143e-13
-1.29651e-13
-7.09866e-11
1.49084e-12
-3.50346e-13
6.32637e-11
0
-5.07037e-11
-4.79623e-11
1.38016e-10
-1.28431e-11
3.78535e-11
-3.44296e-13
2.11407e-12
-1.84062e-12
-1.5112e-13
-4.2586e-13
-3.5453e-12
5.88759e-13
-1.29481e-10
-5.94196e-11
-6.16863e-13
2.69703e-11
-1.13042e-10
7.26051e-13
6.01088e-11
3.62069e-13
7.30034e-13
6.82275e-11
-3.58676e-12
9.62675e-13
8.92179e-14
2.79024e-11
-8.79206e-13
-8.92227e-11
-5.00204e-13
1.59205e-11
9.48199e-14
6.72579e-11
0
9.41628e-14
1.50987e-13
2.73221e-11
-1.56317e-13
-1.25218e-10
1.11819e-10
7.08032e-11
-5.07014e-14
5.0183e-11
-3.75946e-12
6.81548e-13
6.66114e-11
6.59795e-11
-6.0318e-11
1.73831e-12
7.98806e-11
7.83047e-11
0
-1.13403e-13
-6.196e-12
3.44228e-11
2.3228e-11
3.606e-14
-2.48418e-13
2.70989e-13
-2.56925e-11
0
4.47065e-13
6.90527e-12
-2.53687e-11
2.34311e-11
2.35297e-13
2.33373e-11
1.2865e-13
3.43741e-15
1.63967e-13
-2.75697e-11
9.88658e-14
-2.9821e-13
-6.20492e-13
2.92764e-13
-2.92877e-13
5.21741e-11
4.79648e-11
-6.44516e-11
-4.71923e-11
-6.91934e-13
2.48221e-11
-8.56952e-13
0
1.65992e-12
2.27803e-10
5.90946e-13
-1.17769e-12
-2.15533e-12
1.66526e-12
-2.54435e-11
2.04159e-13
6.55718e-11
-1.72087e-12
-4.65639e-13
-8.47417e-14
3.40578e-11
-6.55983e-11
-7.97366e-13
-1.42464e-12
3.09237e-11
-1.24315e-13
2.93096e-13
2.36375e-12
5.96923e-11
-1.0813e-12
-4.97163e-12
-6.72623e-11
1.28942e-10
1.28364e-12
9.48141e-12
-6.93292e-14
5.90117e-11
1.28909e-10
-6.04611e-11
2.60404e-11
9.86881e-13
0
5.55997e-11
-7.202e-13
-6.63573e-11
-2.00847e-12
6.85529e-11
-1.81294e-12
6.02849e-13
5.12806e-11
1.49017e-13
4.5323e-13
-2.34145e-11
-7.65939e-13
-3.34645e-11
8.19541e-13
-6.56425e-12
-3.28833e-11
-6.18129e-14
6.35138e-13
2.38616e-11
-6.45418e-13
-1.21093e-13
2.84032e-13
-2.06832e-13
-2.73001e-11
1.87796e-13
4.46885e-14
-1.46395e-13
-3.38722e-11
2.87005e-11
-3.87811e-11
5.75482e-11
-2.92751e-13
-5.03707e-11
-1.17229e-12
5.84882e-13
-6.41554e-13
-2.98835e-13
-6.81623e-11
3.08519e-14
2.56382e-13
-6.13689e-13
1.11918e-10
1.50026e-13
-5.90698e-13
1.76573e-12
-1.29496e-12
-1.73627e-12
-3.68979e-14
-4.56645e-11
0
-2.15659e-10
-3.08363e-13
-6.49107e-13
-1.56292e-12
4.62649e-11
1.26179e-10
-7.85473e-12
-2.90405e-13
1.15325e-13
0
1.15775e-10
-6.00489e-11
-2.2451e-11
-6.97483e-14
0
1.76569e-12
-6.12897e-13
6.92669e-13
4.61332e-13
-5.96817e-11
-1.4514e-13
4.99511e-13
-3.15062e-11
-2.58368e-11
0
-3.1366e-11
-9.78662e-14
4.77971e-11
-6.49097e-11
-6.27871e-11
-8.17654e-13
-3.31464e-12
-4.52707e-11
1.57872e-11
3.52336e-13
6.03101e-12
2.69742e-11
-2.24055e-11
3.03126e-14
-3.12588e-13
2.26432e-13
5.37766e-11
1.10182e-13
0
-7.25824e-12
2.47409e-11
9.58642e-13
1.37105e-13
3.4306e-15
-3.24965e-11
-4.45583e-13
1.74679e-13
2.7035e-11
4.34706e-14
5.1652e-11
-5.77068e-11
5.77914e-11
5.07969e-11
-5.87659e-13
-5.86412e-13
9.01891e-13
-2.98995e-13
-6.77318e-14
-2.48053e-11
7.97858e-14
3.06436e-12
1.49517e-10
-5.87545e-13
1.26511e-10
1.26703e-10
9.39364e-11
-2.36055e-11
2.38929e-11
-2.41494e-11
-8.80193e-13
-6.34588e-11
-7.62359e-11
3.87008e-13
-3.4981e-11
-1.03052e-10
1.02223e-10
7.46906e-12
-3.07748e-11
-4.21892e-11
5.87665e-13
-1.76526e-12
-7.20711e-11
2.69026e-11
3.54856e-11
8.20998e-12
2.69831e-11
-2.59287e-13
2.81491e-11
-9.61023e-13
-3.59904e-13
1.37883e-13
2.62097e-13
-3.32313e-12
-3.2069e-11
2.98972e-13
4.68511e-11
7.59183e-11
-4.83516e-11
6.7064e-11
6.36885e-11
7.22238e-11
5.5427e-11
-7.93771e-11
1.68698e-13
3.67387e-13
-2.03513e-12
-6.35271e-13
6.11689e-14
-1.3843e-13
2.82592e-13
-7.2073e-13
8.32485e-13
-7.46461e-13
-2.34286e-11
-4.3608e-11
-3.37265e-11
-8.24972e-14
-2.04569e-13
1.27542e-13
3.33675e-13
2.876e-11
2.53192e-13
3.44677e-11
-1.5309e-14
-1.374e-11
-6.30536e-11
-5.70082e-11
4.76338e-11
8.93643e-13
1.48659e-12
-5.94261e-13
1.49546e-12
6.97638e-12
-9.22876e-15
-3.26736e-14
1.22409e-12
-1.14882e-10
-1.36227e-11
1.02175e-10
1.03225e-10
-2.6437e-10
2.15588e-11
2.40615e-11
1.89892e-11
1.18788e-12
-2.68338e-11
7.6041e-11
-5.77474e-13
1.69989e-12
5.26986e-11
1.05822e-10
6.01217e-13
3.0574e-11
5.75322e-13
2.9794e-13
1.33494e-10
1.35386e-11
2.7937e-13
5.24363e-13
-7.43422e-12
5.51699e-13
-7.01576e-11
-1.59224e-14
1.76756e-12
-1.48583e-12
-1.45985e-10
5.13775e-13
1.84765e-12
2.52738e-11
5.98091e-13
-9.69167e-11
-7.72907e-11
-6.71745e-11
6.67953e-11
1.28925e-11
-2.40854e-11
-5.27559e-11
-1.72074e-14
-1.64106e-11
-1.45435e-13
1.32517e-13
-2.74822e-11
2.31973e-11
-4.09299e-13
2.41724e-11
-5.60818e-13
-2.80348e-11
0
2.97773e-13
9.50153e-14
-2.86997e-11
3.38624e-14
-4.44862e-12
-3.11627e-11
3.24888e-11
3.20904e-11
2.37668e-11
2.767e-11
7.9163e-13
-5.08964e-11
1.45612e-10
-1.0158e-12
-4.74599e-11
4.45138e-11
-8.89401e-13
-6.81739e-12
-5.59166e-11
-2.95147e-11
4.35373e-14
5.94406e-13
2.04483e-11
-1.17873e-12
-3.54552e-12
-5.91079e-13
7.09304e-14
-1.39355e-10
2.93656e-12
-2.40384e-11
2.45179e-11
-4.40505e-13
-1.64942e-13
1.06916e-12
4.62875e-13
-1.78484e-11
-2.78026e-11
5.71361e-13
-4.18213e-13
-2.81654e-11
3.04475e-13
1.91865e-12
-1.18223e-12
-1.59735e-11
5.4168e-11
-1.69455e-11
2.09813e-12
0
-7.41366e-12
1.74639e-13
1.18488e-11
-1.45441e-11
-1.90313e-11
-1.02794e-12
-5.316e-13
1.56967e-11
-3.33133e-12
5.81331e-13
5.98472e-11
-2.70236e-11
6.65145e-13
-5.93058e-13
-8.81629e-11
6.58137e-11
-6.38099e-11
3.79632e-11
-3.3075e-11
5.76854e-13
6.90157e-11
-2.3953e-13
2.96803e-11
5.92908e-13
1.70541e-11
3.42397e-12
-1.53525e-10
-1.16408e-12
2.32662e-12
1.12429e-10
-2.01247e-13
1.01065e-12
3.17086e-11
1.48713e-12
8.64662e-11
3.24111e-13
6.64069e-11
-6.58497e-11
-1.36274e-11
-5.02719e-11
0
2.88713e-11
-3.0235e-11
2.97393e-14
2.15942e-11
-1.28302e-13
2.73221e-11
5.77385e-14
3.91523e-13
-1.52996e-12
-3.25207e-11
2.0843e-12
2.49431e-11
4.39194e-11
3.36345e-11
-3.70046e-12
-1.07284e-13
0
-5.92067e-13
-2.88357e-11
1.05764e-12
1.20653e-12
0
9.88439e-12
-3.78776e-11
1.02646e-13
-5.90751e-13
2.34944e-12
-7.971e-12
6.79785e-12
-1.25063e-11
2.34401e-11
6.37132e-12
3.08344e-13
-5.89365e-13
-5.50334e-11
0
-5.62079e-13
-2.93793e-13
2.93963e-13
1.56417e-13
-2.39998e-11
-2.51628e-11
1.46796e-11
2.93731e-13
-2.93544e-13
-6.11095e-11
6.30335e-11
4.82873e-11
-1.46492e-12
5.33032e-13
4.43986e-13
-1.4798e-13
-3.40947e-11
2.92043e-13
1.57485e-11
-7.81061e-12
1.14291e-13
-4.16629e-12
1.91183e-13
-2.16646e-11
-3.01846e-11
-2.95962e-13
2.84368e-12
5.4458e-11
1.07051e-11
8.45039e-12
-1.66256e-11
-1.92304e-12
1.37216e-12
2.07206e-11
1.47966e-13
-5.92074e-13
6.44998e-12
7.29213e-11
-1.93814e-11
6.18858e-11
0
-1.2422e-12
-7.85779e-13
3.89411e-13
-4.44021e-13
2.26498e-11
2.95586e-13
4.8996e-11
-5.86546e-13
-4.19135e-14
-2.55688e-13
1.08162e-10
-6.82785e-11
-2.94933e-13
-1.55263e-12
-2.96747e-13
-1.35941e-11
-8.8635e-13
3.42045e-11
2.94883e-13
-2.98506e-11
5.35087e-11
-1.05542e-11
-1.16363e-11
4.45155e-13
3.15774e-13
-1.29392e-13
-3.48886e-13
0
-2.30545e-11
5.919e-13
-2.33838e-11
1.48151e-13
-4.45082e-13
2.96927e-13
-1.48202e-13
2.96244e-13
2.16096e-11
1.47935e-13
4.88148e-12
3.10625e-11
0
-5.65449e-11
-2.48845e-11
-2.83055e-11
-1.18496e-12
-3.01877e-11
3.31108e-11
2.33421e-11
-1.99056e-11
-2.9257e-11
3.98883e-11
1.05652e-11
4.17293e-11
2.91781e-11
-2.3681e-11
0
-1.06594e-11
-1.16542e-11
1.47659e-13
1.22562e-11
-4.42581e-13
-1.17658e-11
-2.32049e-11
0
-2.36677e-11
-1.47732e-13
-2.02816e-12
-2.08985e-11
-1.98736e-11
-1.90224e-11
-4.65372e-12
-3.85435e-11
-1.47739e-13
2.81047e-11
5.91588e-13
-2.39338e-11
-1.74472e-11
0
3.17428e-11
4.24193e-11
9.25227e-12
9.74647e-12
-4.43309e-13
1.1832e-12
3.06146e-11
0
-1.90677e-11
-3.0904e-11
-2.43279e-11
7.41631e-13
-7.03158e-12
-6.09139e-12
-2.74852e-11
2.95807e-13
2.9585e-13
-6.35141e-11
-2.73833e-11
3.77865e-11
1.20691e-11
-3.20168e-11
-1.65838e-11
1.81825e-11
-2.52616e-11
0
-2.88627e-11
8.01576e-12
8.14949e-12
-1.03225e-11
-7.75265e-12
-2.21514e-12
-1.12499e-11
1.13233e-11
-4.02656e-12
2.50153e-11
2.96229e-13
-3.10749e-11
-2.06856e-11
-2.31906e-11
3.31266e-11
3.04386e-11
1.47743e-13
3.29603e-11
3.50705e-11
-4.44366e-13
3.00821e-11
0
2.66411e-12
-1.47926e-13
-2.73643e-11
-2.66231e-11
-8.87535e-13
-2.89713e-11
6.97996e-11
-2.07477e-12
2.33922e-11
-5.9202e-13
1.47947e-13
4.14138e-12
-7.39478e-13
-1.47896e-13
1.4791e-13
-5.91807e-13
-5.92028e-13
-1.33246e-12
-3.12285e-11
-3.26939e-11
7.39324e-13
5.91325e-13
0
-2.82371e-11
1.47835e-13
1.47871e-13
2.44098e-11
0
-3.12154e-11
-2.6467e-11
-2.95575e-13
-2.20193e-11
-2.27649e-11
-5.42524e-11
1.47788e-13
5.46835e-11
1.47862e-13
0
2.39588e-11
-2.49811e-11
0
3.69551e-12
8.87544e-13
-3.60946e-11
0
2.95578e-13
-1.47829e-13
1.03529e-12
-3.01667e-11
3.45878e-11
-8.8674e-13
-2.95797e-13
-3.12393e-11
2.96117e-13
-1.4793e-13
-2.587e-11
5.52896e-11
4.43658e-12
-1.47875e-13
2.95616e-11
2.98526e-11
2.95791e-13
1.48054e-13
0
2.21895e-11
-4.43485e-13
0
2.30705e-11
1.47893e-13
2.9562e-13
6.27931e-11
-1.47804e-13
0
-2.95862e-13
-2.35069e-11
-1.47787e-13
3.04534e-11
0
-2.47058e-11
-1.47854e-13
1.47768e-13
0
-3.19294e-11
-1.33045e-12
3.56174e-11
-7.38965e-13
-5.91476e-13
-4.43846e-13
0
1.47931e-13
-5.91425e-13
-2.67559e-11
0
1.47834e-13
-3.78445e-11
-4.43589e-13
-2.47057e-11
-4.44018e-13
0
4.4399e-13
4.43817e-13
1.47899e-13
-1.47888e-13
1.29569e-13
3.23532e-12
-3.71919e-14
1.11035e-13
2.96102e-13
1.30214e-11
5.91782e-13
-1.80457e-11
1.47896e-13
1.331e-12
-5.91561e-13
0
2.48506e-11
8.87693e-13
1.47972e-13
0
1.47914e-13
7.39417e-13
-2.33634e-11
2.61733e-11
-6.80216e-12
-7.54157e-12
-4.43667e-13
-4.43754e-13
0
2.42572e-11
-1.03515e-12
2.95708e-13
-2.38048e-11
-4.43625e-13
-3.03149e-11
-2.4841e-11
1.87785e-11
2.29222e-11
2.95828e-13
2.38093e-11
7.39291e-13
-2.95695e-13
3.04625e-11
1.86377e-11
4.14183e-12
4.58454e-12
3.06076e-11
-7.3935e-13
-7.39462e-13
-7.39363e-13
2.39522e-11
2.54312e-11
2.95813e-13
-5.94833e-11
-4.24684e-11
4.43772e-13
5.91512e-13
-4.43611e-13
-1.47885e-12
1.47872e-13
-1.47851e-13
-2.95707e-13
4.43713e-13
0
-1.03582e-12
-2.95848e-13
-2.45478e-11
0
3.14997e-11
-1.47882e-13
3.17886e-11
2.42458e-11
1.47869e-13
3.41686e-11
3.20991e-11
6.3592e-11
-5.9145e-13
2.52861e-11
2.95791e-13
1.47907e-13
0
-2.95691e-13
2.98653e-11
-5.91484e-13
-3.37157e-11
-1.47862e-13
0
0
-2.49981e-11
-1.47939e-13
3.12088e-11
2.92796e-11
5.91452e-13
-3.37136e-11
-1.62656e-12
-5.9148e-13
1.47885e-13
-7.39588e-13
-3.69869e-12
1.47964e-13
0
1.4791e-12
-1.47889e-13
0
2.64897e-11
1.34941e-12
3.01745e-11
-3.8022e-11
-2.95943e-13
-1.22775e-11
1.03536e-12
1.47892e-13
-2.95763e-13
2.21818e-12
2.9576e-13
-2.9577e-13
5.91586e-13
0
1.47926e-13
3.16518e-11
3.29799e-11
-8.87275e-13
-7.39376e-13
2.61744e-11
2.12947e-11
-8.87279e-13
1.47885e-13
-2.44032e-11
2.95821e-13
2.41054e-11
2.55824e-11
-4.43609e-13
-1.92241e-12
2.27752e-11
-7.83835e-12
-2.46967e-11
-3.12023e-11
-4.4365e-13
2.95786e-13
2.07019e-12
4.43596e-13
-2.95742e-13
-1.47895e-13
3.34302e-11
3.57978e-11
0
-2.95768e-13
-8.87265e-13
-7.39405e-13
3.01641e-11
-4.43588e-13
7.39387e-13
2.95827e-13
2.51514e-12
-2.95908e-13
4.43779e-13
2.60294e-11
-2.30691e-11
-4.28842e-12
0
-2.9868e-11
2.95752e-13