/*--------------------------------*- C++ -*----------------------------------*\
  =========                 |
  \\      /  F ield         | OpenFOAM: The Open Source CFD Toolbox
   \\    /   O peration     | Website:  https://openfoam.org
    \\  /    A nd           | Version:  10
     \\/     M anipulation  |
\*---------------------------------------------------------------------------*/
FoamFile
{
    format      ascii;
    class       volScalarField;
    location    "1";
    object      gradTy;
}
// * * * * * * * * * * * * * * * * * * * * * * * * * * * * * * * * * * * * * //

dimensions      [0 -1 0 1 0 0 0];

internalField   nonuniform List<scalar> 
47104
(
4.37803e-13
4.37779e-13
2.88613e-13
-9.20384e-15
-4.45675e-13
2.97116e-13
2.49741e-11
3.07238e-13
-2.88822e-13
-1.90931e-11
6.04907e-13
4.36832e-13
6.87634e-13
5.06297e-12
-2.60679e-13
-5.6433e-13
-1.12845e-13
-1.64517e-13
1.26977e-13
3.06681e-13
1.75697e-11
6.87992e-13
2.62836e-14
2.0725e-13
5.22688e-13
9.94437e-14
-2.51431e-11
-1.04742e-12
-4.27947e-14
1.91246e-11
-2.64529e-15
3.07703e-13
-9.81717e-14
-4.9285e-12
4.28596e-13
4.32276e-13
4.8656e-14
1.42153e-13
-2.78528e-13
-4.02838e-13
-1.78624e-11
-7.02995e-13
1.08192e-12
-1.17306e-13
1.16798e-12
1.43009e-13
4.38218e-12
3.83547e-13
1.93528e-11
-3.58009e-13
-3.66021e-13
1.7306e-11
-3.46931e-13
2.46253e-15
-9.21064e-14
-2.94533e-13
5.84437e-15
1.27164e-13
2.72827e-12
1.22796e-13
8.42562e-14
2.29993e-13
-8.37647e-13
-5.28695e-13
-2.60492e-11
2.44905e-14
-4.53008e-12
-7.22821e-14
-1.95428e-11
5.25418e-13
1.98883e-13
-1.69688e-11
-9.86166e-15
8.2831e-13
5.60928e-13
2.51101e-13
-1.00785e-13
1.96622e-11
-2.90841e-12
2.0212e-11
-2.16963e-14
-2.45985e-13
3.93459e-13
1.60857e-13
2.54803e-11
-1.89825e-11
-1.58003e-14
-8.62718e-13
-1.77953e-11
-5.69016e-13
9.51284e-15
1.39735e-13
4.37336e-13
-7.34223e-13
1.48533e-13
-1.91612e-11
1.57886e-13
-1.9964e-11
-1.80458e-11
-2.01182e-11
-8.91003e-14
0
-3.18075e-11
-1.34304e-11
1.49178e-13
-1.49177e-13
2.6413e-11
1.70233e-11
-2.07588e-11
6.01163e-14
-1.21128e-11
-7.53274e-14
1.75464e-11
8.59928e-12
5.68392e-12
-6.54397e-12
-8.0384e-12
-5.6492e-12
-6.31969e-15
-4.41381e-13
-3.47331e-13
-1.14037e-13
2.97705e-11
2.15054e-11
-4.89917e-13
-2.49477e-13
-3.43507e-11
-2.28958e-11
2.41724e-12
-1.97792e-11
1.26798e-11
5.5712e-14
1.55224e-13
-4.01203e-11
1.62568e-12
5.32099e-11
-9.10005e-15
-2.94619e-13
1.63866e-13
-2.10755e-11
-1.75637e-11
-1.08099e-13
4.63945e-11
4.08913e-11
-8.26505e-13
-5.26051e-11
9.66435e-13
2.29084e-13
-4.33634e-12
2.05312e-12
-1.78612e-11
2.51174e-11
-4.58433e-11
-1.04917e-13
7.92864e-13
4.31139e-14
-5.98503e-13
-4.19543e-13
-2.06443e-11
3.9255e-11
1.76683e-11
-1.47601e-13
-3.82324e-11
-3.45708e-11
3.8193e-11
2.11499e-13
5.28566e-13
3.14203e-13
2.27647e-11
1.7757e-11
1.78154e-11
-7.19161e-12
3.77263e-11
3.46999e-11
-4.03271e-11
-1.06228e-12
1.8806e-13
-6.00728e-14
2.03968e-11
-3.60406e-11
-1.89758e-13
-2.11877e-13
3.02993e-12
-1.3009e-11
-1.12168e-13
-2.32193e-11
-2.45614e-11
-3.36682e-13
-6.57548e-14
-2.24454e-13
0
-1.80683e-11
-9.7039e-12
-2.9838e-13
4.47445e-13
-2.72951e-11
-1.79044e-11
1.19447e-12
2.98674e-13
1.76069e-11
2.09334e-13
1.01511e-11
-2.43098e-11
-2.47347e-11
-8.79308e-12
-4.47107e-13
1.04303e-12
-1.49134e-13
8.80681e-12
6.01426e-14
-4.92723e-12
-4.97576e-11
-4.5641e-11
-3.45125e-11
3.85692e-12
6.45519e-13
-1.93597e-12
-3.44167e-13
1.74851e-13
1.13368e-13
-2.29116e-13
2.8832e-11
-8.26964e-12
6.37996e-10
1.08293e-09
1.07677e-09
1.08686e-09
-8.74144e-11
-2.4403e-13
-2.40243e-13
5.22444e-12
-9.3534e-13
6.59118e-12
-2.80935e-07
-3.0948e-07
-3.15747e-07
-2.67186e-07
-2.00791e-08
-6.60083e-13
-6.0084e-14
-2.64721e-13
5.93017e-13
-4.4282e-11
-9.42913e-09
1.26781e-07
1.34361e-07
1.03013e-07
-4.14251e-09
-8.39139e-14
3.62899e-15
-3.45484e-14
2.38697e-13
4.466e-11
2.24355e-09
-2.84986e-08
-3.0455e-08
-2.29451e-08
9.89833e-10
2.79976e-13
6.97814e-14
4.6866e-13
-2.09214e-12
4.09525e-12
2.55451e-08
-3.62748e-07
-3.79301e-07
-3.03845e-07
1.14534e-08
-6.19232e-11
-2.97838e-13
-6.33902e-14
1.45534e-12
-2.32112e-12
4.7757e-08
8.05218e-08
8.25523e-08
7.42068e-08
-2.38342e-09
1.062e-10
1.67203e-13
4.36654e-14
-2.98428e-13
1.03239e-13
-3.70296e-11
-2.73004e-13
-3.46369e-13
-2.5947e-13
4.15049e-11
-4.38011e-11
2.09478e-13
1.49184e-13
-2.35791e-11
2.63877e-11
-1.35553e-11
1.37085e-11
-7.74862e-12
-8.93881e-13
1.87882e-11
6.56738e-12
-2.98375e-13
-1.90527e-11
-2.97288e-13
-4.42999e-13
-3.27162e-11
-3.04725e-11
2.69567e-11
-2.34742e-11
-4.42948e-12
-1.21863e-11
-2.20259e-11
-1.9285e-11
-1.56083e-13
7.74299e-11
1.08466e-08
9.57887e-09
9.48977e-09
1.00123e-08
9.3959e-09
-2.83823e-11
-3.3332e-13
7.35284e-14
-2.9601e-13
3.69913e-10
0.000129645
0.000134286
0.000135071
0.000133639
0.00013104
9.44996e-09
2.98597e-12
5.72218e-13
-5.44542e-11
-5.05283e-07
-1.11265
-1.74948
-1.75898
-1.73549
0.240851
4.32449e-08
-2.12722e-14
-1.9769e-11
-1.22742e-11
-1.37782e-09
-0.00856008
-0.0288399
-0.0300604
-0.0274068
-0.0241354
2.29019e-09
1.92723e-11
-2.3765e-13
4.9846e-12
1.0876e-09
0.000544088
0.00171069
0.00179524
0.00161404
-0.0261681
-5.27244e-10
7.82533e-14
3.73441e-11
2.7917e-11
1.8561e-08
0.0230834
0.081813
0.0839984
0.0787401
-0.0276395
-9.47495e-09
-8.99687e-14
-2.475e-13
6.51907e-11
1.31869e-06
0.972676
1.23501
1.23959
1.22509
-0.264485
-8.35932e-08
-1.62365e-13
-1.73734e-11
2.64375e-13
3.14285e-08
7.72906e-06
7.06566e-06
7.03843e-06
7.17767e-06
5.25677e-06
-6.80309e-11
3.1789e-14
-1.48842e-13
-8.91552e-13
3.33604e-11
3.34415e-11
4.39437e-11
2.60749e-11
2.62593e-11
-5.90593e-13
2.92786e-11
2.977e-13
-2.18538e-11
4.45245e-13
-7.34738e-12
-1.26285e-10
-1.56141e-10
-1.52678e-10
-1.08747e-10
1.46957e-11
-4.45151e-13
-2.82407e-12
-2.47196e-11
6.51133e-13
-6.76126e-10
-4.82334e-07
-8.31622e-07
-8.08011e-07
-8.79425e-07
3.45769e-08
-6.74007e-14
-2.68641e-11
2.13614e-11
1.88849e-11
-1.23633e-06
-1.18357
-1.43431
-1.437
-1.43061
0.0036486
7.10006e-08
2.60926e-12
2.49201e-11
6.42674e-09
0.0315241
2.70106e-05
2.79537e-11
2.02317e-13
2.30662e-09
0.000851305
1.88286e-06
2.86271e-11
-3.21101e-13
-4.42777e-10
0.000192589
-3.13823e-07
-8.73041e-13
-1.00121e-12
-5.66109e-09
-0.00155686
-8.17562e-06
-2.93873e-11
2.29109e-13
1.28063e-09
0.00155616
3.71947e-06
2.5428e-13
-2.49487e-13
-3.97192e-11
4.42771e-07
0.00151834
0.00184672
0.00185089
0.00182916
-9.05385e-05
7.11147e-10
5.41693e-14
-1.4865e-13
6.67611e-12
-3.37874e-12
1.15232e-10
1.33715e-10
1.5368e-10
1.6986e-10
-1.86632e-11
3.05705e-11
-1.48668e-13
-1.73986e-11
-7.428e-13
3.38209e-12
-1.03991e-10
-1.52266e-10
-1.65415e-10
-1.16951e-10
2.61851e-11
1.45581e-11
0
-1.32149e-13
7.79391e-12
-8.55903e-10
-4.14388e-07
-8.75161e-07
-8.44933e-07
-9.35368e-07
3.7578e-08
-1.15698e-11
1.96376e-11
1.71715e-11
2.19696e-11
-1.45565e-06
-1.21755
-1.49751
-1.50128
-1.49218
0.00487849
7.52369e-08
-1.71188e-11
9.27458e-13
6.82046e-09
0.0395507
3.18471e-05
-1.89813e-11
4.24185e-13
3.12585e-09
0.00108779
2.58747e-06
1.88451e-11
-4.43773e-13
-5.17917e-10
0.000138302
-4.22205e-07
1.84866e-11
1.76603e-11
-7.6623e-09
-0.00413469
-1.06229e-05
-4.72201e-12
9.61715e-12
5.03186e-10
-0.00239648
4.19166e-06
-1.8735e-11
-1.90457e-11
4.86286e-13
4.82728e-07
0.00155849
0.00198679
0.00199307
0.0019339
-2.94026e-05
9.31178e-10
3.14322e-12
-9.66437e-12
0
-5.2922e-12
1.34573e-10
1.55567e-10
1.52986e-10
1.15181e-10
6.76465e-12
4.07023e-11
-2.9742e-13
-1.04154e-12
-7.8805e-12
5.0039e-12
-1.00137e-10
-1.45117e-10
-1.4051e-10
-1.08894e-10
-2.50296e-12
6.09602e-12
1.93397e-11
-2.86941e-11
-1.09886e-11
-9.37921e-10
-3.87145e-07
-8.40303e-07
-8.08206e-07
-9.05805e-07
3.77206e-08
5.41879e-14
7.12711e-14
-2.80006e-13
6.01091e-11
-1.45134e-06
-1.21912
-1.50037
-1.50429
-1.49489
0.00487163
7.56099e-08
-1.98515e-11
2.80287e-11
6.5837e-09
0.0395616
3.22036e-05
-1.86607e-11
-2.62328e-11
3.38788e-09
0.00111592
2.68896e-06
4.36595e-13
3.13091e-14
-4.78543e-10
0.000108592
-4.40105e-07
1.886e-11
2.60526e-11
-7.85011e-09
-0.00216171
-1.0825e-05
2.43664e-11
-2.45468e-13
7.45192e-10
0.00165207
4.20304e-06
-3.5113e-13
-1.56323e-13
-4.49164e-11
4.83454e-07
0.00156241
0.00199422
0.00200106
0.00196389
-9.863e-05
9.41047e-10
-2.49664e-11
1.48765e-13
-2.36315e-11
1.25065e-11
8.69176e-11
1.67621e-10
1.67778e-10
1.05804e-10
-1.41286e-11
7.43395e-12
-1.48797e-13
0
4.0018e-11
-2.94521e-12
-1.13998e-10
-1.56199e-10
-1.87427e-10
-6.91553e-11
5.89283e-12
-5.95065e-12
-5.9536e-13
7.45202e-14
4.9565e-11
-9.07454e-10
-3.83991e-07
-8.38271e-07
-8.06118e-07
-9.04396e-07
3.77683e-08
2.90341e-12
-5.4157e-13
-3.54449e-13
7.44131e-12
-1.35936e-06
-1.21913
-1.50061
-1.50455
-1.49511
0.00487223
7.54698e-08
1.84137e-11
7.72373e-13
8.81815e-09
-0.00478327
3.22157e-05
1.11356e-12
9.51546e-13
3.76443e-09
0.00178329
2.69131e-06
-1.8071e-11
-2.26921e-11
-3.90735e-10
0.000117639
-4.40563e-07
-3.91399e-13
-6.07272e-13
-7.82252e-09
-0.00210039
-1.08378e-05
-9.80741e-13
2.323e-11
7.8453e-10
0.00165297
4.20492e-06
2.53117e-13
-6.11867e-14
-3.63091e-11
4.77364e-07
0.00156304
0.00199493
0.00200168
0.00196039
-9.74509e-05
9.02474e-10
1.34943e-13
1.48836e-13
1.38296e-11
-2.9444e-11
1.19353e-10
1.69761e-10
1.57208e-10
1.29996e-10
-1.47271e-12
8.18199e-12
1.4887e-13
-4.46712e-13
-1.19056e-11
-1.0315e-12
-1.10502e-10
-1.40666e-10
-1.61083e-10
-1.24504e-10
-7.66508e-12
6.10166e-12
-2.97795e-13
-5.72495e-13
-3.90032e-12
-9.00807e-10
-4.02384e-07
-8.63375e-07
-8.32881e-07
-9.25205e-07
3.77176e-08
-4.82913e-13
-2.57453e-13
3.79964e-14
5.82073e-12
-1.33005e-06
-1.21871
-1.49949
-1.50334
-1.49406
0.0048899
7.52652e-08
-4.60386e-14
1.09265e-12
1.06868e-08
-0.00763334
3.18816e-05
6.89541e-13
1.91331e-11
3.71911e-09
0.00171232
2.59297e-06
1.91893e-11
-5.7881e-13
-4.35928e-10
0.000134451
-4.2078e-07
-1.21416e-12
-2.00155e-11
-7.67755e-09
-0.00206378
-1.06198e-05
-1.96159e-11
4.49377e-13
7.1875e-10
0.00164991
4.20383e-06
8.20375e-13
7.75738e-14
6.44126e-11
4.70392e-07
0.00156202
0.00199029
0.00199661
0.0019381
-2.93492e-05
9.29119e-10
-4.85014e-13
1.48892e-13
-6.39673e-12
-9.42797e-12
1.18767e-10
1.43687e-10
1.50793e-10
1.24042e-10
4.56826e-12
0
-7.44626e-13
-2.51688e-11
3.72134e-12
8.84923e-13
2.02568e-11
-1.45159e-11
-1.14679e-11
-9.61985e-12
-5.16277e-12
-3.58753e-11
1.48938e-13
-2.35517e-11
6.848e-13
-8.23497e-10
-2.30494e-07
-2.9405e-07
-2.66397e-07
-3.72014e-07
3.19591e-08
-8.1473e-11
1.82898e-11
4.81825e-12
1.36906e-11
-1.42174e-06
-1.19888
-1.45617
-1.45917
-1.45202
0.00382321
6.6917e-08
2.37003e-11
2.32095e-11
3.68692e-09
0.033343
2.25903e-05
-1.79252e-11
7.37959e-13
9.77625e-10
0.000885654
1.58445e-06
-2.39796e-11
4.61362e-13
-1.36356e-10
0.000119467
-2.56569e-07
2.45071e-13
3.74579e-11
-2.60221e-09
-0.00154287
-6.42611e-06
3.02462e-12
-4.56432e-13
5.60686e-10
0.00162666
3.21003e-06
2.66712e-13
-1.87863e-11
-5.90198e-12
4.53907e-07
0.00135283
0.0015326
0.00153539
0.00152774
-8.63342e-05
8.05056e-10
-2.85961e-12
0
8.92827e-12
1.03205e-12
3.89008e-11
6.38605e-12
8.70883e-12
-2.65215e-11
-4.01126e-11
0
-4.46885e-13
0
5.95421e-13
-6.34311e-12
-2.39047e-11
6.96805e-12
-2.20649e-11
8.59846e-12
-6.34221e-12
-4.46621e-13
-2.68119e-12
3.10986e-14
-3.60994e-13
4.41243e-11
1.79144e-09
1.82386e-09
1.76194e-09
1.79514e-09
8.48098e-10
-2.50957e-11
2.13665e-14
5.41474e-14
5.9527e-13
-3.22445e-07
-0.000605432
-0.00062844
-0.000629164
-0.000627877
-0.000567099
1.6361e-09
2.58072e-12
1.09307e-13
-2.55631e-11
4.52109e-06
-1.84003e-08
2.15039e-11
1.63916e-13
-4.24125e-11
9.35607e-08
-1.35338e-09
-6.669e-14
-1.82219e-11
3.77816e-11
2.5753e-08
1.64873e-10
-4.33087e-11
1.93358e-13
1.07989e-11
-2.52245e-07
4.89568e-09
2.37364e-13
1.78529e-11
1.50326e-11
-1.94474e-05
2.64335e-08
2.19129e-11
-3.23064e-13
4.64581e-13
5.45329e-08
-1.9457e-06
-2.03945e-06
-2.04595e-06
-2.01745e-06
-9.83205e-07
8.0024e-12
-1.49917e-13
0
-6.39895e-12
-5.89776e-13
2.30212e-11
-2.90288e-11
7.40307e-12
1.28254e-11
7.22691e-12
-2.38187e-12
1.48971e-13
-5.06312e-12
-1.71157e-11
1.82794e-11
2.90917e-13
1.05663e-11
-7.23682e-12
-2.02127e-11
2.94762e-13
-1.57792e-11
1.4895e-13
-2.63095e-11
-5.90775e-11
-1.17035e-12
1.68466e-13
3.51737e-11
-1.8425e-13
1.66268e-11
3.11705e-13
1.46621e-11
-1.93731e-11
-2.14928e-11
3.721e-11
-2.24567e-11
7.74013e-11
-3.66275e-11
-1.58728e-12
-2.92524e-13
4.60105e-11
6.03545e-13
-4.43472e-13
-2.50937e-13
5.05505e-11
2.43101e-11
8.16792e-13
1.90232e-11
-1.42497e-13
-5.14325e-11
-9.4941e-13
-3.49067e-11
7.77308e-14
2.6919e-13
9.31239e-14
2.42138e-13
3.51966e-11
-1.77739e-11
-1.86619e-11
4.13513e-11
3.33878e-12
-6.75478e-12
-2.84235e-11
2.10512e-13
-4.09215e-11
-7.12207e-11
5.53678e-11
1.81841e-11
1.83688e-11
2.88377e-13
-3.63578e-11
-1.62479e-11
-2.70602e-11
1.34806e-11
-7.14413e-12
-2.73872e-11
-4.93782e-11
2.86078e-11
-5.95753e-13
-2.91639e-11
-3.99312e-11
-6.54319e-12
9.11749e-12
7.6716e-12
-2.90952e-13
-4.2601e-11
-1.60752e-11
1.48958e-13
-1.48902e-13
2.99105e-11
-3.16771e-11
7.26523e-13
2.89098e-11
-2.12476e-11
1.27838e-11
-4.41957e-13
6.40018e-12
-1.99576e-11
-1.25678e-13
1.61594e-11
-2.56415e-11
-2.98077e-13
2.83073e-11
2.09359e-13
1.30539e-11
-3.83725e-11
1.88996e-12
-3.16188e-11
2.23237e-13
1.19158e-12
3.36234e-13
-1.39957e-12
2.55572e-11
1.82152e-12
-2.88313e-13
2.80812e-11
-2.11366e-12
1.94461e-11
2.84202e-11
1.08604e-12
-2.90549e-12
-3.69032e-11
3.10928e-11
-9.03391e-14
-2.11036e-13
5.89732e-13
8.21214e-11
-3.70001e-13
-2.07994e-12
8.09648e-15
6.98316e-11
-4.46172e-11
-2.52454e-11
-9.78516e-13
-8.39935e-13
1.16822e-11
-4.02627e-13
1.1153e-12
-3.40566e-11
-8.8279e-13
7.59876e-11
-2.60776e-11
3.80467e-12
1.10861e-12
3.52443e-13
1.08241e-10
7.91008e-12
-3.84431e-11
-5.86942e-11
-1.26975e-11
1.09484e-11
1.52939e-11
-1.28917e-13
7.14829e-12
2.97563e-13
-1.34034e-11
1.59788e-12
6.79279e-12
1.18528e-11
-8.71871e-13
3.66862e-11
-8.92898e-13
2.15964e-11
0
5.95208e-13
7.66083e-12
2.16468e-11
4.33547e-13
-1.44507e-13
-3.8199e-11
2.43049e-11
1.04181e-12
-4.46793e-13
5.58469e-13
7.79856e-13
-2.68727e-12
-8.49053e-14
-4.6223e-11
-1.33822e-14
-8.00934e-12
2.47502e-11
-1.93663e-12
-1.83384e-13
-1.65451e-11
0
-2.89941e-11
7.94353e-14
6.39387e-11
7.65728e-11
-1.98197e-12
7.20131e-13
0
-2.71997e-11
-9.1339e-14
4.79754e-13
1.10424e-11
1.40836e-13
-2.05406e-11
1.62426e-11
-4.06836e-11
1.09135e-10
-4.33759e-13
2.65953e-11
1.04428e-13
3.85898e-11
5.07893e-13
1.49839e-13
2.04226e-11
-2.38216e-11
2.19861e-12
8.46242e-13
-2.57563e-13
6.48571e-13
-2.04308e-13
8.83221e-13
-7.37304e-11
7.29356e-13
-2.50661e-11
2.43751e-11
3.69579e-15
-1.4224e-11
3.53224e-11
-4.76251e-12
7.34117e-13
2.91805e-13
6.66048e-13
-4.37241e-13
-8.76131e-13
1.4891e-13
-1.48773e-13
3.71115e-11
2.80284e-11
-3.39552e-11
8.66981e-12
-7.55259e-12
-2.94576e-13
-1.488e-13
2.42758e-11
4.46681e-13
-6.39869e-12
0
-2.90671e-13
-2.89151e-13
-7.5174e-12
2.46983e-12
-1.0312e-12
2.36636e-11
6.10622e-12
4.42936e-13
6.09361e-13
1.69181e-11
4.26554e-11
-2.6393e-13
1.49582e-11
9.13314e-13
1.37918e-12
1.3872e-11
-1.20642e-11
2.4101e-11
2.97772e-13
-8.40334e-11
-5.66696e-11
-9.00673e-11
2.82778e-13
-3.84303e-12
-7.63459e-11
4.7709e-11
1.63974e-14
1.83003e-11
2.24899e-13
-8.542e-11
-1.03202e-10
1.82019e-11
-2.35711e-11
3.35551e-11
-2.94938e-12
5.62953e-11
-6.35947e-14
-1.78252e-11
6.53634e-12
8.24181e-11
9.20028e-13
-1.18743e-14
-1.1751e-13
-4.01648e-11
-3.06912e-13
-9.98363e-13
2.27056e-14
4.37472e-14
-9.77967e-13
5.84576e-14
-3.56075e-11
-2.00833e-13
-7.69707e-14
-8.55776e-13
-4.22442e-11
-1.44631e-11
-2.66646e-11
-5.87161e-13
-4.40569e-11
-2.70849e-11
3.67895e-11
-2.50018e-11
-1.4891e-13
-4.46322e-13
6.77502e-12
7.98954e-12
7.22733e-12
0
7.4087e-12
-4.41876e-13
-1.63682e-12
-2.45742e-11
0
0
-2.94827e-13
2.91028e-13
5.9381e-12
-6.08256e-12
1.4547e-13
7.81119e-12
6.10243e-12
1.48946e-13
-5.37532e-15
5.67092e-13
1.84779e-11
-4.25054e-11
-1.21783e-11
-8.92521e-13
-8.17122e-14
1.06847e-12
4.47467e-11
-8.21086e-14
-1.98797e-11
3.68416e-13
1.66956e-12
-3.07703e-11
1.9534e-13
-3.02263e-11
-2.59258e-13
-2.34681e-11
-4.40511e-11
-2.19733e-11
-5.77777e-13
2.30537e-13
-2.05731e-10
3.51613e-13
-3.57964e-14
1.99481e-11
-4.07025e-13
-8.54696e-11
-2.47927e-13
1.79582e-11
2.46233e-13
-2.51087e-13
-1.32509e-13
7.20731e-14
6.78806e-15
-2.18349e-11
1.66495e-12
-6.83467e-13
-3.41524e-14
3.97944e-12
2.35802e-13
8.41697e-13
3.81961e-12
-6.75621e-11
-2.48692e-13
2.17314e-11
-2.02886e-13
2.84429e-11
-7.98583e-13
-3.16753e-11
1.72963e-11
1.23133e-11
1.31665e-12
7.01432e-11
-2.58162e-11
1.48925e-13
1.48788e-12
4.71521e-12
5.81811e-13
-1.78108e-11
-2.63544e-11
7.27251e-13
6.48361e-12
-3.57168e-12
-2.59175e-11
-2.15952e-11
2.97705e-13
-2.95036e-13
0
0
-5.66417e-12
2.91569e-13
1.47512e-13
-2.84374e-11
2.97947e-13
-3.098e-12
2.68476e-14
1.73738e-13
4.1011e-13
-3.80113e-13
-1.16005e-12
-2.33813e-12
-5.49265e-13
1.49073e-11
-1.66955e-13
2.18201e-11
8.92472e-13
-1.01926e-10
-2.80694e-11
2.27023e-11
1.93746e-12
4.07105e-12
-3.59699e-11
-6.46256e-11
-4.73315e-13
2.08627e-12
5.15922e-13
-5.89313e-13
1.68035e-11
-3.3882e-14
-5.12119e-13
-4.84941e-11
-4.10308e-13
5.28628e-13
4.56579e-13
6.38801e-13
4.79042e-11
-7.99444e-11
-8.89063e-14
2.10032e-13
4.61033e-13
4.49984e-13
-3.75836e-14
4.93856e-11
-4.37023e-13
6.65868e-13
4.98212e-13
-5.05945e-13
-4.96092e-11
5.58865e-14
-1.58008e-13
2.24552e-13
-1.20691e-12
4.23342e-12
-4.79042e-12
1.46181e-11
-1.76188e-12
1.49734e-11
4.8279e-13
-2.78907e-14
-5.9584e-13
3.67635e-11
1.32737e-12
-2.23029e-11
-6.67987e-12
0
6.12186e-12
1.97622e-11
9.82533e-12
-2.97966e-13
1.95128e-11
1.48879e-13
2.95043e-12
-1.45701e-13
9.1393e-12
-6.52794e-12
-1.45683e-13
5.60537e-12
-6.25409e-12
4.32059e-12
6.09034e-14
2.31381e-13
-4.17005e-11
5.57895e-11
2.54293e-13
2.55036e-13
2.13357e-13
-4.59802e-11
-1.68722e-13
4.83242e-12
8.27703e-12
2.97807e-13
6.43573e-11
-4.04473e-11
-5.06433e-11
5.26507e-11
-3.12468e-12
7.07501e-11
3.68255e-11
4.43004e-13
-4.96911e-13
3.46869e-11
-2.6108e-12
5.13439e-13
-2.84906e-13
-2.84928e-11
-3.29555e-11
-2.69857e-12
-3.65845e-11
2.9381e-11
8.30134e-14
-5.13691e-14
7.13357e-11
-7.51654e-13
-5.97757e-13
-1.40848e-13
-1.88638e-13
1.13338e-13
1.14723e-15
-2.93179e-11
4.66452e-13
-2.94556e-13
8.65432e-13
2.92884e-13
8.05991e-13
2.06897e-13
3.37337e-13
3.93724e-12
-1.56098e-11
1.82794e-11
-2.40692e-11
1.20415e-11
5.12497e-13
4.33661e-13
5.34962e-14
-1.48979e-13
-2.05436e-11
-2.24156e-11
7.13679e-12
-7.25208e-13
0
-6.26272e-12
1.47472e-13
1.48896e-12
-1.49003e-13
3.15775e-11
5.80531e-12
-7.07613e-12
-2.39949e-11
-1.69285e-11
-1.5337e-11
2.22494e-11
-4.11286e-11
5.06177e-12
0
-3.88053e-14
-7.29237e-13
-1.05026e-12
1.27299e-11
1.42739e-11
6.60052e-11
1.05122e-11
3.42521e-11
1.56894e-11
7.13805e-13
-3.14299e-11
8.9366e-13
-8.85359e-14
-9.56922e-13
2.87721e-12
-6.81277e-11
-3.11482e-12
-5.01906e-11
-3.01964e-13
6.50433e-14
-5.2069e-13
9.06273e-14
-1.27422e-11
4.76103e-12
-9.29819e-13
-2.11977e-11
2.73739e-13
-3.68269e-13
-5.0527e-11
5.14797e-12
3.82057e-13
-3.33585e-13
-2.13491e-12
4.64112e-11
-3.22681e-13
7.78809e-13
-2.56105e-13
-7.5469e-13
1.44019e-13
-3.42309e-11
2.95412e-13
9.85194e-13
9.88774e-14
-8.48561e-12
-2.41876e-11
2.03943e-11
-4.15512e-11
1.75966e-11
2.36008e-11
1.21443e-11
-1.7077e-11
-1.08569e-11
4.28167e-11
1.00858e-11
2.97072e-11
1.48969e-13
7.14414e-12
-7.36775e-12
-4.07014e-11
-1.44661e-13
1.44661e-11
-6.83204e-12
-1.32625e-11
0
2.50318e-11
1.48964e-13
1.48847e-13
-2.59359e-11
3.16806e-11
1.44573e-13
1.05541e-11
-5.95882e-12
2.19594e-11
5.95484e-12
4.46931e-13
1.34296e-13
-1.9236e-14
-2.46043e-11
5.71499e-11
2.91445e-13
2.29056e-11
6.54485e-13
-3.3376e-11
3.7053e-11
1.93652e-11
-1.07343e-13
5.95523e-13
-3.32423e-11
-4.50629e-11
1.86745e-12
-7.9546e-11
3.65469e-11
1.11234e-10
-3.53426e-11
-3.00393e-13
1.22039e-13
-3.60119e-13
-2.31951e-12
8.29026e-14
-1.91556e-11
-1.53037e-13
-4.58845e-13
6.90057e-11
-3.45917e-11
9.00649e-14
-2.28507e-11
8.54293e-13
1.07368e-10
3.46828e-11
-2.78253e-11
1.6409e-13
-2.13644e-13
2.18892e-12
-4.84347e-13
-1.71927e-11
2.32447e-11
3.93815e-13
1.67261e-12
-8.18755e-13
2.8244e-11
-1.14005e-13
8.1649e-13
-4.77264e-11
-3.11085e-11
1.17208e-11
3.66976e-13
-2.6041e-11
8.98649e-13
-7.57841e-13
1.7566e-11
0
-8.92979e-13
1.75315e-11
8.57161e-12
3.96066e-11
-2.74644e-12
1.293e-11
3.34434e-11
6.99657e-12
-1.49011e-13
-3.12946e-12
-7.14717e-12
7.81246e-12
1.45375e-13
1.44649e-13
-3.39942e-11
2.90812e-13
8.84584e-12
2.23373e-12
2.84638e-11
1.80153e-11
-2.78881e-13
-1.53614e-11
-3.36864e-13
-6.33555e-12
-1.18399e-11
2.41001e-12
-2.21007e-12
4.23496e-11
2.58931e-13
4.16746e-11
5.95534e-13
-1.81883e-12
-1.99312e-12
4.72426e-12
-7.99567e-11
2.31029e-11
-5.04001e-12
-8.78965e-11
-2.77542e-11
2.08986e-13
4.05396e-13
0
4.41766e-11
1.75303e-13
-1.99807e-11
7.28252e-13
5.89879e-13
-2.32015e-13
1.64865e-11
-2.82535e-13
-7.85911e-13
5.77452e-12
5.44662e-13
-1.85632e-13
2.31764e-13
5.53689e-14
7.58484e-11
-1.14659e-12
6.21414e-12
3.34047e-13
-7.12743e-12
1.23204e-12
1.75638e-12
3.32373e-11
-6.7909e-14
5.57006e-11
-6.01836e-12
1.51916e-11
2.03668e-11
-4.11056e-11
-2.8669e-11
-1.19147e-11
-1.8942e-13
-2.33703e-11
0
-1.86092e-11
-6.18986e-12
-8.72114e-12
2.84921e-11
1.2872e-11
1.88953e-12
-1.47378e-13
-3.17173e-11
-3.36889e-11
0
-1.16246e-11
7.23332e-12
7.2858e-13
-6.09275e-12
6.09313e-12
-1.45758e-13
7.38271e-12
0
2.0431e-11
1.88481e-11
-6.465e-12
-1.83336e-13
1.58669e-13
-5.92141e-13
5.41928e-13
-8.86462e-13
-2.88227e-11
-1.30084e-13
2.07059e-11
-3.08519e-14
5.08311e-11
-2.16379e-12
-2.93471e-12
-7.1117e-14
4.4103e-11
1.11364e-12
1.68285e-11
2.41588e-12
-9.97396e-14
7.12219e-12
-5.07522e-11
-1.73889e-11
-4.89068e-13
2.31214e-11
-3.16883e-13
3.78441e-13
-2.11706e-13
4.96607e-11
-6.88153e-13
-5.18671e-11
-1.26283e-14
7.21896e-11
-5.09841e-11
-4.37493e-11
8.48367e-14
2.3892e-13
5.52848e-13
-1.52726e-13
2.68639e-12
2.74108e-11
-5.42813e-11
2.25186e-12
6.35898e-13
5.91619e-11
9.74812e-14
-4.66645e-12
-3.45981e-11
-1.31441e-11
-5.31937e-11
1.54673e-11
-1.38451e-12
-4.05133e-11
-2.52335e-13
-1.90657e-12
-5.96477e-13
9.98317e-12
-1.07746e-11
1.1656e-12
8.70291e-13
-9.42808e-12
2.91388e-13
7.82235e-12
1.2519e-11
-3.78901e-11
2.98535e-13
1.94048e-12
0
7.04592e-12
-7.46459e-12
-2.92744e-13
-4.40469e-13
-8.15183e-12
-7.91103e-12
2.98515e-12
1.38683e-13
4.80319e-11
-1.00812e-12
4.19089e-11
1.48914e-11
-1.12482e-12
3.22412e-13
-1.74085e-11
-4.52229e-12
2.54968e-11
-1.42724e-11
-4.86432e-11
-7.60104e-14
-5.51458e-11
-6.09808e-12
4.37756e-12
1.43783e-13
1.14766e-12
-2.08099e-11
2.25959e-11
-1.24891e-12
5.14094e-11
8.44172e-11
2.2824e-11
-3.78407e-14
1.40823e-11
-1.06604e-10
-6.26861e-13
-3.54202e-11
8.12369e-14
6.8902e-13
5.61482e-11
-1.15327e-10
3.53634e-11
2.32355e-13
5.47154e-13
2.77894e-13
1.45492e-10
4.28733e-13
-1.94427e-13
-1.88937e-11
8.6446e-14
1.56491e-12
4.91088e-11
1.25936e-14
1.17176e-11
4.88398e-11
-3.8712e-11
-3.78396e-11
0
-1.31686e-11
-1.31016e-12
1.11165e-12
-1.21208e-11
-6.76173e-14
3.08924e-11
-7.90903e-12
1.03725e-12
4.0217e-11
-8.48818e-12
-1.46347e-13
-9.09971e-12
4.44505e-13
8.65702e-12
0
0
-7.76436e-12
-3.31884e-11
-1.4822e-13
8.292e-12
0
2.43107e-11
5.95334e-13
6.86804e-12
-1.49211e-13
-1.76173e-13
5.68657e-13
-2.48844e-11
-2.61253e-13
-4.82451e-12
-1.08985e-12
4.94049e-11
1.29136e-11
4.75583e-12
1.79729e-11
-1.80398e-11
1.19492e-12
-1.39862e-13
2.72325e-11
-2.45508e-11
3.5806e-11
1.42121e-11
-1.7413e-11
-4.53552e-12
1.64272e-13
1.40418e-14
-3.81942e-13
-2.0951e-12
3.91871e-11
-1.78541e-11
-1.35204e-11
3.62504e-11
-9.54491e-11
-3.97928e-11
1.97318e-11
-2.84046e-13
-3.89257e-11
1.04722e-11
1.54294e-11
-2.82335e-14
3.10448e-11
1.67386e-12
-8.13253e-11
2.9871e-11
-2.0309e-11
-2.34563e-11
0
2.75917e-12
-4.55067e-11
-2.14099e-11
6.4348e-13
5.75312e-14
0
1.07671e-11
1.75334e-11
-1.65573e-11
2.01739e-13
-1.63322e-11
-1.10693e-13
6.4287e-13
2.35716e-11
0
-2.52945e-11
0
1.48054e-13
-5.62598e-12
0
2.97592e-13
1.04504e-12
2.14895e-11
1.74197e-11
3.81143e-11
5.58762e-11
8.15885e-12
5.9313e-12
1.15669e-11
7.41736e-12
-2.39249e-11
-6.69951e-12
-1.72686e-11
1.79159e-11
5.9936e-11
2.297e-11
1.78127e-13
-1.23858e-11
-3.42548e-13
-1.61939e-11
-4.13964e-11
1.0805e-13
1.7882e-11
-9.66528e-14
7.31398e-14
-5.29474e-11
-2.30382e-11
2.724e-11
-6.1568e-11
1.30329e-11
2.36531e-11
2.97139e-13
1.72339e-11
1.83923e-13
-2.96371e-13
5.18097e-11
5.49731e-11
-1.19237e-11
-6.75978e-11
-6.13505e-11
9.60311e-11
-5.74103e-13
4.89359e-12
-9.84865e-14
3.59044e-11
-9.79177e-13
-4.18353e-11
5.45018e-12
4.4397e-11
3.59143e-11
6.5371e-11
3.34566e-11
4.29249e-13
6.50663e-14
-3.65462e-11
3.08662e-13
-4.23808e-11
-6.18104e-12
-2.29858e-13
-6.11698e-11
-8.83343e-11
-3.40185e-11
-2.27076e-11
1.53729e-12
5.17333e-13
-5.27642e-11
8.04293e-11
-9.10646e-13
-5.82369e-11
6.10292e-11
7.12054e-13
-4.57609e-11
1.36669e-12
-4.02148e-13
-4.75994e-11
7.11397e-11
-4.7891e-11
7.43274e-11
8.05219e-11
9.97901e-11
-9.6167e-13
4.66951e-11
-1.96848e-13
-1.63595e-12
1.0504e-11
-3.70593e-11
-2.9633e-11
-2.82175e-12
-8.37627e-11
4.54915e-11
2.43735e-13
-3.00538e-13
-1.68896e-12
-1.48846e-13
3.57198e-12
-1.33709e-12
6.5264e-12
3.45464e-11
-1.18619e-12
3.61911e-11
5.94313e-12
-2.08395e-12
0
4.45413e-13
2.28499e-11
-2.267e-11
0
1.34733e-11
4.5876e-11
-2.50148e-11
-3.91352e-11
-4.97086e-11
-4.29044e-11
-2.72622e-13
1.13519e-13
2.53323e-11
-6.76809e-12
5.21324e-12
8.19047e-12
7.80678e-12
-3.16464e-11
-1.81863e-11
-2.12634e-11
-6.56493e-13
-2.25642e-11
2.19901e-11
4.06112e-13
-5.27721e-11
-1.73289e-11
3.07077e-11
-1.10523e-14
3.14436e-11
8.51953e-13
1.86646e-13
-1.62475e-13
4.13527e-11
-4.2541e-13
5.15802e-11
-5.76895e-13
5.27545e-11
-4.18303e-13
6.19989e-13
3.36624e-13
-2.28228e-11
2.63841e-13
-4.23615e-11
3.09624e-11
1.08496e-11
-3.5137e-12
-1.0017e-10
-1.29457e-12
2.08606e-11
2.06332e-11
7.34882e-14
2.39301e-11
4.17979e-13
-2.84182e-11
8.45565e-12
6.01891e-12
4.71234e-11
8.82313e-13
-2.7554e-13
1.52897e-14
4.46035e-11
-8.04066e-12
-9.8204e-14
-1.35751e-11
-3.51734e-11
9.76508e-13
-8.7248e-13
3.00757e-13
-2.72131e-11
2.78543e-13
-1.28836e-14
-3.20935e-11
3.49208e-13
3.75223e-11
-3.79219e-11
-1.17674e-12
1.39889e-12
1.02736e-13
-3.57649e-13
2.68856e-13
-4.45736e-11
6.07215e-12
-4.18362e-14
7.20445e-12
3.80715e-11
-7.37775e-12
2.32319e-12
-9.23086e-12
-3.57618e-11
1.46603e-12
-2.25637e-11
0
-3.85345e-12
-1.76123e-11
2.72407e-11
2.21962e-11
2.95997e-13
2.37042e-11
2.37377e-12
1.18771e-12
-1.18562e-12
-4.44367e-13
0
2.66282e-12
0
1.47916e-13
-1.47938e-13
-1.48023e-13
-5.92489e-13
-5.92785e-13
3.8287e-12
-4.6892e-13
1.3001e-13
2.75917e-12
-3.00783e-14
2.3646e-11
8.13333e-14
-1.74818e-11
-6.90278e-13
-5.91183e-13
-1.86883e-11
1.88817e-11
-8.24839e-14
-2.65135e-12
-2.58024e-11
-1.01808e-13
9.80391e-14
-4.35109e-14
3.67159e-13
-4.41352e-14
-5.18101e-12
-2.56575e-11
4.24935e-15
-2.59615e-15
7.41185e-13
-2.37258e-11
-1.55384e-13
1.70395e-11
-2.37161e-11
-1.29971e-13
1.89692e-11
-1.82142e-11
-2.25551e-11
2.92734e-12
2.57514e-11
3.51389e-13
-1.65605e-11
1.22022e-13
-2.07025e-13
1.20187e-13
7.71371e-14
2.57087e-11
-2.80416e-11
-8.53407e-14
-1.17123e-12
5.43187e-14
1.73661e-11
5.76367e-13
2.39237e-11
9.624e-14
1.84479e-11
-4.75577e-13
2.21472e-11
-6.63063e-15
-4.02034e-14
-2.0878e-13
-1.02235e-11
-3.59737e-13
-8.90485e-14
7.33331e-14
-7.57233e-14
-6.69158e-14
2.87238e-11
2.01689e-11
6.05532e-13
-6.07288e-13
1.12908e-11
2.57087e-13
2.65224e-13
5.03929e-13
-1.82257e-11
1.03323e-14
-4.10076e-13
-1.47494e-13
-7.27203e-14
1.05121e-13
2.72216e-11
-4.5025e-14
-2.12049e-13
-3.13801e-13
-1.48188e-13
-1.48109e-13
-7.40029e-13
-2.0118e-11
1.47915e-13
1.47906e-13
-2.76615e-11
-4.43998e-13
0
-2.96396e-13
0
1.48005e-13
-1.42029e-11
1.77488e-11
-2.95791e-13
-1.47896e-13
5.02894e-12
1.87899e-11
5.92028e-13
1.48051e-13
-1.7964e-11
-2.86635e-14
-1.35989e-11
-1.43464e-13
-2.03783e-13
-2.14539e-13
1.10949e-13
4.38663e-12
-1.67161e-11
3.14069e-13
-1.78303e-11
-2.80126e-14
3.76758e-13
-4.02016e-11
-1.37641e-11
-3.32451e-12
-8.54768e-12
-2.29754e-11
8.92913e-14
-1.05533e-14
1.87027e-11
-1.79652e-11
-1.90512e-11
-2.30536e-13
2.34405e-11
3.20131e-11
-4.48071e-13
1.34726e-11
1.75312e-11
1.27934e-12
1.76528e-11
2.70379e-14
-8.38896e-15
2.27081e-11
1.41795e-11
3.7457e-12
3.29827e-12
2.39971e-11
6.23491e-14
-5.16008e-13
-6.66943e-13
-5.87165e-12
1.58512e-12
1.89166e-13
-2.35996e-11
-5.54282e-11
-2.37347e-11
1.13625e-12
-1.86989e-11
-1.00172e-12
-1.90803e-13
1.18183e-13
-4.48728e-14
-9.40372e-14
2.86887e-13
-3.62605e-13
-3.5459e-13
-1.16166e-12
1.75081e-13
1.90532e-11
2.01556e-13
4.62711e-13
-4.58787e-12
-9.52382e-15
2.53154e-11
2.47845e-11
2.44603e-11
-1.88277e-13
1.8656e-11
-8.23509e-14
5.22382e-14
1.20564e-13
-7.52862e-13
9.28943e-14
-7.93377e-13
-2.0136e-11
-3.82135e-13
-2.28941e-11
2.85523e-11
-1.86734e-11
-1.48043e-13
2.30875e-11
2.15991e-11
-2.95797e-13
-2.52888e-11
-2.05564e-11
-4.437e-13
-2.2487e-11
2.82684e-11
0
-4.23194e-11
-2.4411e-11
7.3958e-13
0
5.91557e-13
-2.10004e-11
0
5.91681e-13
1.81977e-11
2.95944e-13
-3.70652e-11
-1.98333e-11
1.99395e-13
-1.67643e-11
-1.67519e-11
-1.69913e-11
-2.0228e-13
2.38482e-11
1.83101e-13
3.89282e-13
2.28394e-11
2.43996e-11
-5.91597e-13
-5.79693e-13
-2.50541e-11
-5.86607e-12
2.3609e-14
2.48452e-13
-1.82596e-11
5.40958e-13
-4.3571e-12
2.01652e-11
-3.54495e-13
1.64019e-11
-5.76475e-12
1.7289e-11
-2.56277e-13
-4.31506e-11
1.69174e-11
3.30999e-12
1.23496e-12
2.26945e-11
-5.15926e-14
-1.81994e-14
2.51407e-11
2.69962e-11
-2.12533e-14
-1.37444e-13
2.88687e-13
1.65825e-11
2.28738e-11
4.39114e-14
1.93551e-11
2.66398e-13
2.23487e-11
-1.15659e-13
-4.25174e-13
1.97449e-11
5.21473e-12
-3.33685e-12
-3.41585e-13
-2.26342e-11
-2.32985e-14
-3.58482e-14
-2.40439e-11
-1.35434e-12
5.24975e-14
-8.02125e-13
-3.82793e-13
-1.72083e-11
2.39325e-13
-1.65627e-13
-1.90585e-11
1.19441e-13
4.84444e-13
7.74037e-14
2.28796e-13
2.2006e-13
-4.13163e-11
-2.48501e-15
-1.78021e-13
2.46167e-13
-2.05921e-13
-9.07357e-14
2.37421e-11
1.11905e-12
2.9318e-12
4.94726e-13
6.08857e-13
1.97012e-14
0
4.43819e-13
1.4791e-13
2.95779e-13
0
0
2.80996e-12
0
1.84932e-11
2.95943e-13
-9.83702e-12
-6.65729e-13
7.39659e-14
-3.69593e-13
1.86327e-11
-5.02791e-12
-5.17485e-13
-7.39032e-14
-2.2181e-13
7.37721e-14
-9.53921e-12
-1.40432e-12
7.39413e-14
-1.81151e-11
-8.87269e-13
-2.27739e-11
-1.88554e-11
-7.3885e-14
7.42186e-14
2.22501e-13
2.21045e-13
5.16808e-13
-2.95708e-13
1.48213e-13
-1.99653e-11
5.02844e-12
4.43892e-13
-1.47773e-13