/*--------------------------------*- C++ -*----------------------------------*\
  =========                 |
  \\      /  F ield         | OpenFOAM: The Open Source CFD Toolbox
   \\    /   O peration     | Website:  https://openfoam.org
    \\  /    A nd           | Version:  10
     \\/     M anipulation  |
\*---------------------------------------------------------------------------*/
FoamFile
{
    format      ascii;
    class       volScalarField;
    location    "1";
    object      gradTx;
}
// * * * * * * * * * * * * * * * * * * * * * * * * * * * * * * * * * * * * * //

dimensions      [0 -1 0 1 0 0 0];

internalField   nonuniform List<scalar> 
47104
(
1.3959e-13
-6.19299e-15
5.86824e-13
5.51545e-13
-1.94693e-13
1.55231e-13
2.57072e-13
5.25537e-14
-2.57264e-15
-1.39584e-13
9.32208e-15
-9.24761e-14
1.99717e-13
-4.94794e-13
1.36972e-14
2.54917e-11
4.79501e-13
-2.49623e-11
-1.94328e-11
-1.87907e-11
-1.39536e-13
9.21406e-14
5.27879e-12
1.93937e-14
-5.90722e-12
1.12017e-13
6.71156e-13
2.23745e-13
6.41274e-13
2.88441e-13
-1.74069e-11
-1.77591e-11
-6.4076e-13
1.75174e-13
-8.97547e-14
7.76136e-14
-5.54172e-13
-1.12931e-13
7.0688e-13
1.57889e-13
1.4855e-13
5.42096e-14
-8.01055e-14
-1.50007e-13
-1.59357e-14
-2.59367e-13
3.5623e-14
-1.49982e-13
1.7877e-13
0
0
8.54397e-13
1.64541e-13
-8.74391e-14
1.38957e-13
3.43714e-12
3.08917e-13
1.48854e-11
-2.23449e-13
-1.93109e-11
1.72415e-11
4.4858e-13
-1.73699e-11
4.95783e-13
-6.03054e-13
6.67922e-15
4.82651e-13
2.94353e-12
-2.23053e-13
-2.8161e-12
4.56183e-13
-2.05149e-13
-4.89795e-13
-2.53905e-11
-9.07901e-14
2.55964e-11
-1.40107e-13
-4.08938e-14
7.04264e-13
7.35228e-13
-1.39766e-13
1.74485e-13
5.56994e-13
-1.59196e-13
-5.49235e-13
1.03943e-13
1.95878e-11
-1.74551e-13
6.95663e-13
2.02637e-11
1.39609e-13
4.66196e-13
-1.21779e-13
-3.50837e-13
-1.93597e-11
1.4549e-13
1.85589e-11
-1.79177e-11
6.07253e-13
1.77517e-11
-1.49214e-13
-2.17131e-13
-2.76758e-12
7.76738e-14
2.82477e-12
-2.09818e-14
1.09296e-13
-2.01242e-13
1.05591e-13
4.47613e-13
-1.49336e-13
-3.19279e-11
-1.63037e-11
3.23942e-11
1.61274e-11
2.61026e-11
1.70635e-11
-4.70976e-11
-1.72195e-11
2.09059e-11
1.23924e-11
1.93029e-11
-1.40164e-11
1.16772e-12
-3.50106e-13
-4.14129e-11
7.92161e-11
-3.82578e-11
0
1.493e-13
1.49207e-13
-8.37417e-12
2.54846e-13
4.57472e-15
-5.00329e-11
4.99381e-11
-3.18502e-14
-3.2873e-11
-2.03743e-11
-1.19361e-12
-1.49167e-13
7.51586e-12
2.1768e-12
-2.34314e-12
4.76139e-13
-3.28631e-11
3.262e-11
-6.41436e-13
-2.13878e-11
-2.10314e-11
1.76028e-11
1.82108e-11
5.59002e-13
6.62395e-13
1.05685e-11
-1.0419e-11
4.72412e-11
-4.65309e-11
-2.60249e-11
4.9224e-12
4.32774e-11
2.95371e-12
-3.24918e-11
-3.78832e-11
3.86232e-11
3.93749e-14
2.39436e-13
4.72314e-11
-4.18723e-12
3.90942e-11
0
-2.61892e-13
5.26428e-11
-5.19578e-11
2.33661e-13
9.52966e-14
-1.40128e-12
2.58775e-13
7.74389e-12
0
1.79227e-11
9.74094e-12
-1.79858e-11
-9.62965e-12
-6.36965e-13
-1.81588e-13
-6.53105e-13
4.73002e-13
-1.68784e-11
-1.79213e-11
-1.4921e-13
2.97233e-13
-4.5272e-13
4.39411e-13
-2.73885e-11
-1.83452e-11
2.75409e-11
1.81961e-11
-2.29462e-13
-2.98422e-13
1.49189e-13
2.31947e-11
1.73168e-11
-2.33373e-11
-1.69491e-11
-6.58313e-14
-1.48531e-13
1.49571e-13
-1.59618e-13
0
1.32835e-11
-2.64112e-11
5.73022e-12
-4.46853e-11
4.46772e-11
-5.92946e-13
-7.14514e-13
5.19459e-13
1.77182e-13
-1.4327e-11
1.50595e-11
6.92513e-12
1.2617e-12
-1.69809e-12
-1.12967e-13
-5.94674e-13
1.75951e-12
5.69652e-13
8.18908e-13
7.75302e-12
-1.26632e-11
4.60177e-11
6.19193e-10
-2.81e-07
-9.37162e-09
2.22971e-09
2.55112e-08
4.77788e-08
-5.38891e-13
-7.00175e-12
-2.98048e-13
3.61196e-13
1.08375e-09
-3.09362e-07
1.26824e-07
-2.85538e-08
-3.62725e-07
8.057e-08
-5.37442e-11
0
1.49037e-13
1.13052e-13
1.07648e-09
-3.15768e-07
1.34403e-07
-3.04255e-08
-3.79305e-07
8.25254e-08
5.49747e-13
-6.85502e-12
-8.34493e-12
1.64523e-11
1.12814e-09
-2.67262e-07
1.02993e-07
-2.29489e-08
-3.0385e-07
7.41865e-08
-1.03203e-13
0
-6.56294e-12
1.16672e-11
-8.48247e-11
-2.00925e-08
-4.17056e-09
9.80623e-10
1.14933e-08
-2.38902e-09
5.26375e-11
-4.47381e-13
1.49293e-13
1.90947e-11
-1.82017e-11
-5.03199e-11
4.90805e-11
1.48473e-11
-1.43746e-11
1.52661e-14
-9.75642e-13
1.4181e-11
-2.07366e-11
2.45806e-11
2.06837e-11
-2.5007e-11
4.53562e-13
-6.66302e-13
-4.1339e-14
2.97536e-13
1.31725e-13
0
-1.8755e-11
-1.72908e-11
-2.20634e-13
-1.39539e-12
-2.58764e-11
-1.72256e-13
2.91014e-11
-6.34431e-15
-3.36031e-12
-1.48823e-13
1.48615e-13
4.46779e-14
-8.28941e-12
-4.84263e-11
-1.16717e-11
2.32753e-11
7.42143e-12
6.23465e-11
-8.359e-13
-1.53051e-11
1.47634e-12
1.13281e-10
-1.07697e-09
-5.13253e-07
-3.0118e-09
6.55928e-10
1.82113e-08
1.30966e-06
3.17269e-08
7.08606e-12
-2.58174e-11
1.08027e-08
0.000129946
-1.11258
-0.00855594
0.000545548
0.0230828
0.972687
7.72319e-06
-6.16078e-12
-2.19743e-11
9.60233e-09
0.000134343
-1.74946
-0.0288418
0.00171008
0.081814
1.23501
7.06486e-06
1.90434e-11
-1.4651e-12
9.48731e-09
0.000135075
-1.75898
-0.0300619
0.00179502
0.0839995
1.23959
7.0373e-06
3.13494e-11
-1.39397e-11
1.00519e-08
0.000133608
-1.7355
-0.0274073
0.00161413
0.078744
1.2251
7.17085e-06
2.55259e-11
-2.31877e-11
9.43155e-09
0.0001309
0.240819
-0.0241373
-0.0261696
-0.027643
-0.264472
5.22613e-06
6.4969e-12
1.48658e-13
4.93963e-13
9.30849e-09
4.3321e-08
2.25724e-09
-5.50902e-10
-9.62157e-09
-8.35379e-08
-1.4558e-10
6.24283e-12
-5.95366e-13
2.04132e-11
3.8633e-13
-1.91491e-12
1.90322e-13
-1.84942e-11
-1.88802e-13
2.22314e-11
1.41075e-13
-2.20298e-11
-7.43326e-13
-2.85815e-13
2.94469e-13
9.04103e-13
5.13847e-13
-2.31956e-13
-1.95462e-11
3.70837e-13
1.89893e-11
0
3.66525e-11
2.85438e-11
5.01644e-12
6.49908e-09
2.30419e-09
-3.90218e-10
-5.67785e-09
5.23972e-10
3.44078e-11
-3.85748e-12
3.83478e-11
-7.02635e-10
-1.22848e-06
0.0315302
0.000853981
0.000199867
-0.00137039
0.00153904
4.27089e-07
-3.93745e-11
-1.20035e-10
-4.81092e-07
-1.18367
0.00151913
1.15386e-10
-1.53536e-10
-8.31547e-07
-1.43432
0.00184677
1.58585e-10
-1.57319e-10
-8.09131e-07
-1.43696
0.00185111
1.96176e-10
-1.39991e-10
-8.69839e-07
-1.42996
0.00182977
1.22216e-10
9.26084e-12
6.19485e-08
0.0033819
-9.16608e-05
8.81656e-12
-6.67909e-12
3.5302e-14
7.11628e-08
2.70458e-05
1.88266e-06
-3.90177e-07
-9.28109e-06
3.62419e-06
7.67151e-10
-6.38176e-12
-1.4865e-13
5.90944e-13
8.17716e-14
-1.77594e-11
3.54686e-13
4.43415e-11
-1.17668e-12
-4.32281e-12
1.4293e-14
-2.30436e-11
2.23059e-12
-1.50415e-14
-2.15286e-12
6.58329e-13
4.47009e-13
-4.92177e-13
-7.99938e-13
-3.42838e-13
2.15054e-13
4.46039e-13
1.70822e-11
8.30307e-11
-2.40493e-11
6.84982e-09
3.1376e-09
-4.76343e-10
-7.65949e-09
7.58303e-10
5.63921e-12
-7.72261e-12
-3.08779e-12
-8.87577e-10
-1.44402e-06
0.0395087
0.00108209
0.000157027
-0.00201553
0.00164539
4.77473e-07
2.79346e-11
-1.11535e-10
-4.12474e-07
-1.21704
0.00155883
8.80297e-11
-1.54868e-10
-8.75994e-07
-1.49746
0.00198685
1.51531e-10
-1.42044e-10
-8.46907e-07
-1.50117
0.00199356
1.41576e-10
-1.25242e-10
-8.62432e-07
-1.48692
0.00195841
1.4126e-10
-1.66238e-11
1.83718e-08
-0.0576047
-9.81747e-05
-5.88175e-12
-1.27762e-11
-1.29574e-11
7.5322e-08
3.18534e-05
2.58082e-06
-5.6515e-07
-1.47443e-05
1.76753e-06
7.58607e-10
1.41132e-11
1.48683e-13
8.44448e-14
2.06064e-11
9.29137e-13
-2.04514e-11
-4.24179e-13
-7.5719e-13
2.02158e-11
2.39169e-14
-2.03733e-11
-1.63671e-12
-6.80009e-13
6.12839e-13
1.22833e-13
4.54438e-13
-1.62742e-13
-7.33903e-13
-1.05681e-13
1.85901e-13
-1.48767e-13
5.35231e-12
-6.82564e-11
8.18365e-11
6.54685e-09
3.23915e-09
-4.96502e-10
-7.72687e-09
7.49367e-10
-2.81136e-13
2.58631e-11
4.06245e-11
-8.83533e-10
-1.45253e-06
0.0396801
0.00106378
0.000108686
-0.00209201
0.00165391
4.82899e-07
-1.33905e-11
-1.10326e-10
-3.91677e-07
-1.218
0.00156245
1.04336e-10
-1.45566e-10
-8.44753e-07
-1.50007
0.00199426
1.22434e-10
-1.05857e-10
-8.09774e-07
-1.50422
0.00200129
1.4265e-10
-9.72862e-11
-9.09017e-07
-1.49452
0.00196502
1.00422e-10
5.00623e-12
3.76782e-08
0.00485565
-9.86487e-05
4.0766e-11
-9.21877e-12
3.88603e-11
7.55655e-08
3.21957e-05
2.68225e-06
-4.80813e-07
-1.10393e-05
4.20106e-06
9.26169e-10
1.23413e-11
-2.36536e-11
-2.23545e-13
4.6989e-12
2.02558e-11
3.87463e-11
-1.99788e-11
-2.38359e-11
2.70488e-13
3.38313e-12
-1.48797e-13
-3.64704e-11
-1.06054e-13
3.64012e-11
1.0368e-12
2.15402e-11
-1.86542e-11
-2.14135e-11
1.81401e-11
5.7139e-13
5.9536e-13
2.975e-13
-2.24436e-12
2.20365e-11
6.49771e-09
3.23964e-09
-5.1682e-10
-7.68941e-09
7.3346e-10
5.94579e-14
8.92305e-13
-5.00832e-12
-7.69599e-10
-1.44023e-06
0.0397104
0.00106146
0.000102145
-0.00210117
0.00165348
4.77248e-07
3.97524e-12
-1.11451e-10
-5.00838e-07
0.11765
0.00156309
1.26908e-10
-1.4438e-10
-8.46747e-07
-1.49833
0.00199498
1.44913e-10
-1.39891e-10
-8.08064e-07
-1.50444
0.00200201
1.38702e-10
-7.86025e-11
-9.05442e-07
-1.49507
0.00196568
1.08908e-10
1.23757e-11
3.77263e-08
0.00486947
-9.87066e-05
2.94504e-13
-1.50259e-11
-4.28785e-11
7.5537e-08
3.22113e-05
2.68325e-06
-5.22418e-07
-1.19248e-05
4.08499e-06
8.79416e-10
2.97536e-13
0
-1.88584e-11
-3.13418e-13
4.10007e-11
2.80489e-13
-2.11932e-11
-1.21883e-12
1.06426e-14
-1.63436e-14
0
2.38246e-12
-3.44436e-13
-3.1204e-12
-4.29044e-12
6.81448e-14
4.56106e-12
-1.04086e-12
-1.63889e-13
8.5818e-13
1.48897e-13
-1.38375e-11
7.81214e-14
4.19967e-11
6.66518e-09
3.16931e-09
-4.8156e-10
-7.73906e-09
7.51977e-10
9.49096e-11
-5.95106e-12
-1.32642e-11
1.32545e-10
-1.42849e-06
0.0396193
0.00105835
0.000118144
-0.00206574
0.00164956
4.70304e-07
-1.14912e-11
-1.10985e-10
-5.41841e-07
0.236596
0.00156203
1.04525e-10
-1.54582e-10
-8.72895e-07
-1.49733
0.00199033
1.49042e-10
-1.69488e-10
-8.35026e-07
-1.50322
0.00199709
1.70461e-10
-1.19568e-10
-9.26243e-07
-1.49402
0.00196175
1.15143e-10
4.42255e-13
3.77022e-08
0.00487643
-9.85729e-05
-1.93018e-11
6.84607e-12
-2.83017e-13
7.53069e-08
3.18742e-05
2.58351e-06
-5.61778e-07
-1.47331e-05
1.75963e-06
8.42065e-10
-1.48823e-13
-1.48892e-13
-3.98052e-14
5.59325e-13
-4.4396e-12
-2.85373e-13
4.47119e-12
-1.22526e-12
2.0982e-13
-4.73197e-13
-2.9785e-13
-1.48928e-13
-5.66922e-14
-2.22927e-11
6.15865e-15
2.21135e-11
7.46018e-14
-9.47979e-14
2.47675e-11
-1.28348e-13
-2.48727e-11
2.67862e-11
3.34513e-11
1.34015e-11
3.23032e-09
9.93502e-10
-1.52554e-10
-2.54049e-09
5.18888e-10
3.65224e-11
1.1906e-12
3.2e-11
-7.80852e-10
-1.40526e-06
0.0334366
0.000826243
0.000111593
-0.00154835
0.0016263
4.44754e-07
2.93422e-11
1.93834e-11
-2.51125e-07
-1.19662
0.00135321
3.54053e-11
-7.69426e-12
-3.00028e-07
-1.45575
0.00153264
1.39334e-11
2.2649e-11
-2.69666e-07
-1.45901
0.00153548
1.36435e-11
-1.99724e-11
-3.74564e-07
-1.45194
0.00152763
1.71938e-11
-2.16875e-11
3.19131e-08
0.00377445
-8.62854e-05
2.50698e-12
-8.78323e-12
-7.1807e-13
6.69435e-08
2.25967e-05
1.58272e-06
-2.84793e-07
-6.59578e-06
3.21721e-06
8.45717e-10
4.466e-13
-1.4893e-13
2.42345e-12
2.47675e-11
-1.88793e-12
-2.47165e-11
-2.84243e-11
-2.49917e-11
2.85299e-11
2.54976e-11
1.48962e-13
-1.48929e-13
-1.83452e-13
1.86781e-11
-5.32653e-13
-1.56029e-12
6.03919e-13
-1.76985e-11
4.52562e-13
9.3578e-13
-4.46866e-13
1.48808e-13
-6.10581e-13
-3.86971e-11
1.20658e-11
-5.11494e-12
8.83394e-13
1.07521e-11
-3.09296e-11
8.22175e-11
-1.07164e-11
-7.6682e-12
-3.96884e-11
-3.23108e-07
4.44634e-06
1.26165e-07
-2.34642e-08
-2.47415e-07
-1.96102e-05
5.46602e-08
-5.89812e-12
1.45742e-13
1.77427e-09
-0.000608174
-1.94615e-06
2.9141e-13
-6.53396e-12
1.84321e-09
-0.00062719
-2.03957e-06
2.2062e-11
1.45216e-13
1.80143e-09
-0.000612528
-2.04612e-06
1.4515e-13
2.91604e-11
1.82736e-09
-0.000626543
-2.01763e-06
-3.78872e-11
0
9.13551e-10
-0.000563081
-9.83306e-07
7.66895e-12
-7.44437e-12
4.06081e-12
1.58241e-09
-1.83968e-08
-1.40147e-09
2.69183e-10
4.96425e-09
2.63183e-08
4.10053e-13
-1.48875e-13
4.46835e-13
-5.71199e-13
2.22877e-11
-1.63686e-11
-2.26448e-11
1.7363e-11
-1.04194e-13
-6.27843e-14
6.96632e-14
-1.48971e-13
-9.6795e-12
-2.59389e-11
-1.69915e-11
3.30687e-13
3.74861e-13
-1.06517e-12
-7.31621e-13
1.20035e-13
2.75297e-14
0
-4.32973e-11
-2.86498e-11
3.60365e-11
-3.56769e-11
3.57251e-11
-3.62359e-11
-3.68905e-11
3.73609e-11
2.21311e-13
-5.65518e-12
-1.47353e-13
-4.22036e-11
-4.39611e-11
-8.85362e-11
1.13727e-12
-1.00302e-10
-1.18096e-12
1.22215e-12
6.31235e-11
-3.60994e-11
8.57987e-12
5.60474e-11
-7.44134e-11
-9.43848e-13
0
5.79035e-13
3.00052e-13
-3.23922e-11
-3.6573e-13
0
-8.25213e-12
1.70307e-11
1.03753e-13
7.34203e-11
-1.30256e-11
1.2511e-11
4.18822e-12
-5.70825e-12
-3.64231e-13
-2.34132e-11
2.6835e-11
2.55071e-11
1.43545e-13
1.09671e-12
-3.92048e-11
1.48876e-13
-4.37038e-13
7.19425e-13
-2.98903e-11
2.95909e-11
-3.89284e-11
3.93018e-11
-4.33147e-11
4.54451e-11
1.65227e-11
-2.12982e-11
-2.80099e-11
4.51569e-12
2.82132e-11
1.68695e-11
2.12032e-14
-2.50429e-11
-1.77725e-11
2.5357e-11
1.81729e-11
-2.24843e-11
1.8236e-11
2.24914e-11
-4.00998e-11
-2.2657e-13
1.21562e-11
3.80766e-13
9.59473e-12
-1.49089e-13
2.97875e-13
6.3975e-12
-5.26571e-11
4.0191e-11
1.99273e-12
-1.95626e-12
-5.01021e-11
4.96055e-11
-1.7651e-12
4.08484e-13
-3.70524e-11
1.4729e-13
3.44441e-13
-2.60682e-13
-5.79757e-13
-5.8972e-13
7.48187e-13
1.26364e-12
7.17736e-11
-7.98636e-12
-4.18294e-11
-1.45264e-13
-5.65971e-11
7.69296e-11
4.50532e-12
-2.32402e-11
-3.7292e-11
-3.76014e-11
-4.14655e-14
-5.93234e-11
1.15623e-12
1.44554e-13
-4.26681e-11
5.73476e-11
-6.75049e-12
-3.17985e-12
-2.77526e-11
-4.94389e-11
3.14059e-11
-1.9317e-11
-3.34194e-11
1.62091e-12
-3.4357e-11
7.40254e-11
-7.40992e-11
1.47352e-13
1.6522e-11
9.72505e-12
1.43379e-12
1.31153e-11
-1.37476e-13
-4.66432e-11
-4.04381e-12
4.1017e-12
4.56002e-11
-2.88747e-11
2.97845e-13
3.02649e-13
7.20936e-13
3.78181e-13
-1.29602e-12
-6.99016e-13
2.1702e-11
-2.47187e-13
-2.1732e-11
8.93643e-13
-5.9558e-13
1.70599e-13
2.74243e-13
-1.99784e-13
-1.72817e-13
1.75901e-11
-1.85106e-11
-1.7579e-11
1.87243e-11
0
1.4877e-13
-2.38324e-14
5.95492e-13
3.84768e-11
-8.61522e-11
4.735e-11
4.39249e-13
2.94211e-13
2.90412e-13
-7.43998e-13
-8.68921e-12
-6.91274e-13
-2.98719e-11
1.04001e-10
8.55348e-11
-5.87547e-13
-9.36824e-11
1.92185e-12
8.29329e-13
1.47274e-13
2.87565e-11
2.1528e-11
-3.20013e-11
-2.68951e-12
-4.51653e-11
-6.79159e-12
-9.60516e-13
4.59434e-13
1.82452e-11
-2.60091e-11
-7.22565e-13
6.54879e-13
3.25141e-11
5.8731e-13
-1.30052e-12
4.93946e-12
-1.6185e-11
-3.11033e-11
5.1859e-11
-6.39134e-12
3.52123e-11
6.15558e-11
-1.21259e-10
1.13263e-13
1.23748e-11
0
-7.84729e-15
-6.04071e-13
3.44434e-11
2.26301e-11
-5.69412e-11
3.41229e-11
-3.39699e-11
-5.89782e-13
-4.01842e-11
-1.4891e-13
2.76988e-11
2.64242e-11
-5.39419e-11
-2.59295e-11
2.59767e-11
-1.50351e-13
3.127e-13
-1.04365e-12
-1.04252e-12
5.95574e-13
7.42e-13
-2.14125e-13
2.61702e-13
-1.27068e-15
-5.54826e-14
-5.33465e-14
-1.11453e-11
-6.17926e-12
5.21263e-12
8.47927e-12
-3.6155e-11
3.59634e-11
-8.74897e-13
-4.3602e-13
-2.76865e-13
2.44973e-13
2.94195e-13
5.21315e-11
-8.18405e-12
-1.47291e-12
-3.18127e-13
-2.74031e-11
1.08411e-10
-1.05836e-12
-9.70832e-13
1.29502e-12
6.64605e-11
-3.79296e-11
-1.16358e-11
-3.82098e-11
1.47017e-11
-6.09462e-11
1.45346e-13
-9.4424e-12
-2.39968e-11
-2.26761e-11
1.00521e-12
-1.53103e-11
6.36031e-12
-1.15657e-12
2.8436e-14
3.86948e-12
6.67902e-12
-5.7823e-13
0
-7.48264e-15
-1.0693e-10
-1.42962e-11
7.99053e-12
-1.47359e-13
-1.40809e-11
3.49667e-11
-1.77111e-11
-2.06242e-12
4.46455e-13
2.74239e-13
3.50454e-11
1.31549e-11
-4.85462e-11
-2.84263e-13
-2.21675e-13
2.77254e-12
2.08204e-13
3.86957e-12
1.4891e-13
1.42527e-13
-3.16428e-15
1.12211e-13
-1.32477e-13
8.93547e-14
-4.02894e-14
1.60813e-13
-2.4994e-11
-2.47231e-11
0
2.19879e-13
-3.42015e-13
1.29343e-14
2.27891e-13
-8.57057e-14
6.64843e-14
4.1163e-14
5.44613e-14
1.48946e-13
-1.48766e-13
3.70555e-13
-2.78821e-13
9.33946e-13
2.4636e-13
4.14117e-13
1.18038e-12
-8.82347e-13
8.27766e-14
-6.10132e-12
1.47355e-13
-1.60171e-11
4.11085e-13
3.47651e-12
3.0125e-12
-1.07418e-10
-7.21124e-11
8.72856e-13
2.00585e-11
-5.45231e-12
4.34968e-11
8.94632e-12
1.42844e-12
5.80728e-13
-2.88008e-11
7.67525e-12
-3.99273e-11
1.63786e-11
-5.58888e-11
9.70223e-12
-2.89652e-13
4.80161e-11
-6.43993e-11
-5.12296e-11
3.6203e-12
-8.87606e-12
3.21581e-11
-5.76752e-11
-1.7486e-12
-6.10937e-12
3.64109e-11
5.28369e-11
-2.9047e-11
-4.94336e-11
5.89493e-12
-1.63712e-12
-9.10267e-12
1.0264e-11
-2.83588e-13
2.87791e-13
-5.22474e-14
4.74369e-11
1.28008e-13
-4.94705e-12
-1.05677e-11
-1.48925e-13
-2.55975e-14
4.22769e-13
-1.88374e-11
-2.00152e-11
1.92663e-11
1.93832e-11
-7.71023e-13
-2.52375e-11
-2.59175e-11
-2.97865e-13
1.6964e-13
2.77733e-13
-1.47819e-13
-1.50453e-13
-1.84664e-13
9.31085e-14
2.26724e-11
-4.86511e-16
-2.2644e-11
3.55659e-11
-9.38312e-12
3.74856e-11
6.07701e-13
3.0654e-13
-5.27532e-13
-1.29828e-13
7.313e-14
1.87489e-13
7.44283e-13
3.83427e-12
3.93303e-12
-7.93564e-13
6.27794e-13
-7.10958e-13
1.79486e-12
1.60095e-10
5.4967e-11
0
-5.89987e-13
-1.31198e-12
-5.71951e-11
1.16159e-10
4.67028e-12
0
-8.71354e-13
-1.16095e-11
-1.10036e-10
-3.68492e-13
6.97058e-12
4.35701e-13
1.22063e-12
-5.45248e-12
-1.40275e-12
4.35664e-13
0
-3.91199e-11
5.36393e-11
5.65266e-12
1.45769e-13
0
-2.41344e-13
6.59072e-11
-1.57055e-11
1.47494e-13
-6.99739e-12
-8.06261e-13
-6.52957e-12
-1.06933e-11
3.59928e-11
-3.59239e-11
-5.11874e-13
4.85334e-11
-5.8645e-11
2.32258e-11
2.27909e-11
2.36932e-13
-3.97037e-11
-2.467e-13
1.68917e-11
-1.92863e-13
9.48542e-12
-9.64951e-14
-9.9302e-12
-2.97966e-13
0
-5.02902e-13
3.8012e-14
1.05613e-13
9.61218e-14
6.51661e-15
-4.85478e-12
-5.474e-15
6.13314e-13
-4.46957e-12
-2.6494e-11
-2.57027e-11
3.2762e-11
-3.34836e-11
5.56223e-11
-5.52914e-11
-2.70177e-13
-1.1782e-12
5.08073e-13
7.14592e-12
6.04668e-12
-2.26264e-13
5.25379e-13
9.082e-13
-3.92741e-13
4.35221e-13
5.44372e-11
1.38576e-12
-3.58764e-11
7.66876e-12
-3.14654e-11
-7.98672e-11
2.6915e-11
7.29413e-14
2.33046e-12
7.10769e-12
-1.21927e-11
3.14286e-11
2.2112e-13
1.20388e-11
1.45061e-13
4.59314e-11
-5.63792e-11
4.31176e-11
3.87279e-11
7.28426e-13
6.60427e-13
4.41913e-11
4.20712e-11
-1.66047e-11
-1.91767e-12
-3.30875e-11
2.38195e-11
-2.87336e-12
-5.89946e-13
-1.16146e-11
-4.40831e-13
-7.12561e-13
-4.0851e-11
4.12218e-11
-9.76975e-13
2.00338e-12
-3.77555e-11
-1.46942e-11
9.82803e-12
-2.1155e-11
-1.68144e-11
2.11552e-11
1.66704e-11
-8.21525e-14
2.6388e-13
2.03675e-13
1.22413e-13
2.1166e-13
-4.47009e-13
0
6.57196e-13
1.95746e-13
-3.98323e-13
4.23678e-13
-1.70878e-11
1.70126e-11
1.71159e-11
-1.78884e-11
1.48972e-13
-5.00056e-11
-7.29332e-12
-7.38825e-11
-1.93976e-11
5.65904e-11
-4.63481e-11
4.69928e-11
5.91585e-13
-1.46208e-11
4.4651e-13
-1.47387e-13
3.87485e-13
-1.88558e-12
1.73739e-12
1.35472e-13
-6.91445e-11
-2.91589e-11
7.12636e-11
-1.93446e-13
5.89419e-13
5.96145e-12
-3.83382e-11
-1.52943e-12
6.60825e-11
-1.58447e-11
-6.22111e-12
9.38995e-13
-9.3051e-11
-4.865e-11
8.24591e-12
2.79241e-11
2.76516e-11
1.89409e-12
-1.36322e-11
6.51013e-12
-6.39862e-12
1.28918e-11
-4.60447e-11
-1.36254e-11
-1.33746e-11
1.7985e-11
3.61668e-11
4.027e-12
-1.44675e-11
-4.64253e-11
-1.32498e-11
3.46922e-11
2.14396e-11
-3.30412e-12
-1.52199e-11
-3.68849e-11
4.66969e-11
-9.65705e-12
-4.1159e-11
-3.32021e-11
1.48969e-13
-1.71947e-13
-2.53951e-11
-3.77459e-13
2.52636e-11
1.25872e-13
-6.98422e-14
5.00799e-14
6.53175e-14
1.48999e-13
0
1.92984e-11
-1.81832e-11
-1.90903e-11
1.95532e-13
1.16622e-13
1.78384e-11
8.08855e-14
-1.67409e-14
1.48977e-13
1.4883e-12
-8.95012e-14
-5.95566e-13
6.11571e-13
-2.33459e-13
-1.55945e-13
-4.00632e-13
3.32137e-11
-3.42682e-11
5.95317e-13
5.74644e-12
-1.28287e-11
1.03852e-10
2.3194e-12
5.89797e-13
2.43057e-12
1.72344e-13
7.2399e-11
1.42175e-11
4.12493e-11
-7.99213e-12
2.1966e-13
4.25236e-11
4.16466e-11
-8.7169e-13
8.2403e-12
-4.66079e-11
6.658e-11
1.10614e-11
5.49311e-12
-6.07222e-12
-1.31215e-12
3.28717e-12
1.51189e-11
-7.08373e-12
3.85185e-11
3.10154e-11
3.66109e-11
4.52939e-11
-4.44651e-11
-2.94798e-13
6.92746e-12
-1.06471e-11
1.88085e-11
-2.32839e-11
2.97739e-13
8.79863e-14
5.10555e-11
-5.1637e-11
-4.43054e-11
4.4166e-11
-1.362e-13
0
-1.74783e-13
6.99812e-12
-7.44865e-13
1.08861e-13
1.16276e-12
2.50711e-11
-9.76839e-13
-1.9937e-11
2.53527e-11
-5.42177e-12
-2.51956e-11
1.49011e-13
1.89258e-11
1.83185e-11
-6.9787e-13
9.93827e-14
2.07147e-11
-1.04537e-14
-2.05721e-11
3.36902e-14
-2.59838e-13
0
2.9033e-11
-9.30182e-12
3.84359e-11
9.02826e-14
2.10233e-13
-1.42516e-12
6.49663e-13
0
-3.34212e-11
3.5581e-11
2.94799e-13
-7.34449e-11
1.01373e-10
5.81139e-13
1.13848e-10
7.94987e-11
-1.01073e-10
-6.30001e-13
-4.55611e-11
6.0423e-12
-2.64594e-11
-2.89674e-11
5.17783e-12
2.20236e-11
8.72116e-13
1.44649e-13
-2.31363e-13
1.15297e-12
1.45788e-11
1.48979e-11
2.89316e-13
-5.88195e-14
-1.09866e-11
1.25507e-11
2.21335e-11
7.99811e-12
-1.1006e-12
4.19189e-12
3.71284e-11
-6.10791e-12
-4.42325e-13
-1.84231e-12
-1.00721e-12
-4.06268e-11
4.40891e-11
8.0409e-12
4.94578e-11
-6.07217e-11
1.05135e-11
-5.68673e-11
1.7438e-11
-1.58892e-12
4.12863e-11
3.66597e-11
3.8729e-11
-1.49017e-13
-4.49542e-12
5.07762e-13
2.12798e-11
-1.40957e-13
-1.70106e-11
-1.11146e-13
-1.90897e-11
-7.35729e-15
1.92295e-11
5.0706e-12
6.69487e-15
-5.73291e-12
-4.80976e-14
5.68433e-13
8.50047e-14
1.11339e-13
-1.48409e-13
-2.03434e-11
-2.05801e-11
-4.61971e-12
3.04434e-13
2.97993e-13
4.15187e-13
-8.74278e-14
3.38863e-11
-3.43555e-11
4.49191e-11
-4.60048e-11
-5.8112e-12
-2.33252e-11
2.0941e-11
1.19756e-12
-7.55353e-11
-2.35867e-12
-7.6727e-13
-7.29761e-11
3.86552e-13
1.30113e-11
7.37958e-12
-1.4574e-13
3.6894e-14
-2.26191e-12
-1.2128e-11
0
-2.11804e-11
-4.7153e-11
2.62926e-13
1.47068e-11
2.43702e-11
0
3.69979e-11
-2.38852e-11
-1.53185e-11
5.22324e-12
3.54196e-11
3.54645e-11
8.74727e-13
1.47346e-11
-2.75553e-11
1.47649e-13
-4.84313e-11
7.29226e-11
0
2.65835e-12
-2.83153e-12
-1.7292e-11
-3.6843e-11
3.56482e-11
-2.41686e-12
4.42284e-11
-4.18608e-11
1.46307e-12
4.28896e-13
5.79969e-11
0
-1.78084e-11
-8.7924e-14
1.78062e-11
-1.39241e-13
7.22404e-14
4.72083e-13
-1.695e-13
-1.8223e-13
4.47521e-13
0
2.22152e-13
8.33603e-14
-2.4153e-13
1.01784e-13
4.35971e-14
-8.43569e-14
-9.48956e-14
-2.5701e-11
-2.56723e-11
9.85052e-12
-4.90127e-13
5.96371e-13
-2.71871e-13
5.2411e-13
-2.96224e-13
-9.70888e-13
4.19538e-13
-4.63639e-11
-1.91022e-11
4.44584e-13
6.48537e-12
-9.19756e-11
5.79647e-12
2.39085e-13
2.08754e-12
-1.13533e-12
-9.98147e-11
-6.98693e-11
8.89018e-13
2.7307e-11
-3.21064e-11
6.49075e-11
-2.90906e-11
0
-2.19564e-11
2.292e-12
-3.21169e-12
-7.3047e-14
-8.92788e-12
5.85524e-13
6.70592e-13
3.87834e-11
2.17266e-11
-5.56224e-12
1.1746e-12
4.61448e-11
-6.0732e-11
3.13692e-11
-5.72612e-12
-7.70671e-12
-4.42604e-13
3.70199e-11
-4.93553e-11
5.92914e-12
3.37288e-11
-1.11979e-11
-8.45392e-12
4.30289e-11
1.10562e-14
3.14498e-13
1.96752e-13
-8.76535e-13
7.53084e-13
-8.06246e-12
-1.20883e-11
-1.1891e-11
2.04656e-11
4.00628e-13
-2.05557e-11
-4.23844e-14
3.1545e-13
2.11385e-11
-3.937e-13
-2.11995e-11
-2.98453e-13
1.85976e-11
3.31881e-13
-1.81554e-11
-1.12582e-14
-2.43399e-11
-2.0947e-13
2.40572e-11
3.81793e-13
0
1.49299e-13
7.02837e-13
-5.97851e-13
7.62591e-14
-2.06348e-13
1.29259e-13
-4.82706e-14
5.24621e-13
2.50578e-12
-6.71748e-12
5.50644e-12
-1.16003e-11
-2.87016e-11
4.02507e-13
-5.41968e-13
-3.771e-13
-6.6203e-13
-2.49405e-14
1.30963e-11
2.39562e-11
1.8233e-11
4.64963e-11
-1.15982e-10
1.70299e-11
2.96408e-13
5.62754e-12
4.30243e-13
-1.09275e-11
8.01325e-12
-1.48065e-11
4.13191e-11
2.70787e-11
-1.49836e-12
-1.08274e-11
3.24278e-11
1.15632e-11
-9.86123e-13
2.54343e-12
1.46453e-11
1.03756e-12
-1.05667e-11
2.32585e-11
-2.90319e-13
-3.19167e-12
-8.92995e-13
3.16474e-11
3.21211e-11
-2.30214e-13
-1.91871e-11
6.0123e-12
-1.78548e-13
-3.60097e-11
3.71489e-11
2.50237e-14
-2.8521e-11
-1.49187e-13
-1.90781e-11
-1.1232e-13
1.90485e-11
1.47584e-13
4.56026e-14
1.36824e-13
5.37528e-13
1.27568e-14
-7.46162e-13
-1.51864e-11
-7.42574e-12
3.27009e-11
2.50405e-11
2.97579e-14
5.46777e-13
2.1543e-11
-4.70984e-13
-2.18028e-11
1.48867e-13
-1.42921e-11
6.60332e-11
-6.86523e-11
6.75673e-11
-4.87813e-11
3.45799e-11
-3.47497e-11
6.18579e-13
4.18259e-14
-2.93222e-11
-1.48607e-13
-2.62375e-13
0
-2.34416e-11
2.71949e-11
2.3995e-11
2.02455e-11
-6.4953e-11
-5.31663e-11
3.07549e-11
-1.48355e-13
-2.41077e-11
-3.94491e-12
4.16998e-11
-9.17432e-11
5.32735e-11
-1.30628e-11
2.85681e-12
3.70202e-13
7.26801e-12
-8.89854e-13
1.16973e-11
1.05306e-10
1.2219e-11
-4.09963e-13
3.74559e-11
-2.12601e-12
-4.47313e-11
5.20711e-11
3.12879e-11
-2.66957e-12
-4.5302e-11
5.91805e-11
-1.3298e-11
2.90125e-13
-8.30568e-13
6.06774e-13
-8.2449e-11
-1.62669e-11
1.48288e-13
-4.45072e-13
-2.87842e-13
-1.91923e-11
-2.34583e-11
-4.72944e-12
4.65818e-11
-4.02226e-11
5.31337e-11
-4.74483e-11
7.86197e-12
-1.01046e-11
-1.60213e-12
-5.0997e-13
-1.70753e-12
8.62534e-11
8.60558e-13
-2.33116e-12
2.16982e-12
9.25273e-12
2.08036e-12
-3.57252e-12
2.42821e-13
-4.75473e-11
4.81648e-11
-1.61566e-12
1.38309e-12
-4.59506e-11
4.59395e-11
1.04055e-13
-2.53101e-12
2.97691e-13
2.48079e-13
-3.6688e-14
1.77523e-11
-6.28872e-13
6.23774e-13
3.05991e-13
-1.79105e-11
-3.43787e-13
0
-1.48471e-13
-2.85306e-12
-1.15866e-13
-4.26975e-13
-2.33282e-11
3.31072e-12
4.71851e-11
1.80826e-11
-2.73874e-12
2.96917e-12
2.2256e-11
-2.59876e-11
-2.29987e-11
2.55929e-11
6.91025e-13
-3.23885e-11
-1.42713e-11
3.28588e-11
-2.48036e-11
9.64309e-12
1.4817e-13
6.24102e-12
-1.164e-11
-4.28781e-11
4.24904e-11
-1.00022e-11
1.03815e-11
7.49262e-13
1.10399e-11
-1.48147e-13
0
8.85164e-12
1.10436e-13
-6.34904e-12
7.08986e-12
3.66635e-11
-3.67791e-11
-1.89982e-13
-1.51925e-11
-2.10153e-11
-1.4798e-13
-2.95151e-13
-5.49677e-11
2.22578e-11
1.13105e-13
-8.11254e-12
1.44146e-13
-4.93837e-11
1.65251e-11
-2.95927e-13
2.30851e-11
3.64526e-11
-1.3204e-11
2.5253e-11
-2.30724e-11
-1.21084e-11
-7.59185e-14
4.73888e-11
-7.19262e-12
-2.08632e-11
2.4127e-11
-1.50239e-11
-3.18537e-11
-3.05902e-12
7.55808e-11
-1.38841e-11
-8.26335e-11
4.66584e-11
1.3606e-11
-1.48007e-13
-3.4835e-11
-2.90451e-11
-3.67588e-11
3.66012e-11
-4.58644e-13
-3.57566e-11
3.43405e-11
-4.01787e-13
-3.62926e-11
3.11293e-12
1.48374e-13
1.66957e-14
4.38638e-11
-8.48176e-13
-2.32103e-11
-7.67601e-12
-2.6522e-12
-2.58892e-11
2.52391e-11
2.65609e-11
2.25637e-11
1.98448e-11
-1.13545e-13
2.34227e-11
1.03969e-13
-2.04849e-11
-1.03593e-12
-2.40051e-11
2.72489e-12
2.53872e-11
-7.41011e-13
-1.16948e-12
-3.00233e-12
1.78083e-13
2.63688e-12
-2.23355e-14
9.77254e-14
4.49003e-13
7.24754e-13
-1.48196e-13
-1.4812e-13
1.14651e-13
-1.559e-14
8.23795e-14
5.66943e-14
-4.42458e-14
-3.5022e-14
-5.94345e-14
-3.46819e-14
-1.48112e-13
-5.18023e-12
-5.16216e-12
2.87721e-13
-2.02842e-13
2.38117e-11
-3.8935e-14
-4.13464e-11
1.63674e-13
1.75779e-11
0
3.75724e-11
1.90082e-11
-2.1604e-11
-2.56361e-11
2.60145e-12
2.58397e-11
1.01713e-13
2.07723e-13
-9.21929e-14
-2.95839e-13
-2.5882e-11
-5.02805e-14
2.60851e-11
4.91814e-13
-2.61607e-13
-6.15873e-13
-3.28455e-13
-2.38839e-11
5.27367e-13
2.36641e-11
4.4369e-13
-2.22052e-11
-6.14163e-13
2.2787e-11
-3.63609e-14
-1.65274e-11
1.77091e-13
1.62651e-11
-8.68004e-14
0
-1.47925e-13
-2.84661e-11
-1.34392e-13
2.77388e-11
-3.03152e-14
1.76234e-11
1.27686e-13
-1.71971e-11
-2.34686e-13
0
-1.83537e-11
-1.86408e-11
9.91029e-14
7.64681e-14
-3.90805e-14
-2.65772e-11
-1.30285e-13
2.66944e-11
2.1324e-13
1.48019e-13
0
2.5343e-14
2.01377e-11
-2.251e-13
-2.02596e-11
2.83499e-11
3.99512e-13
-2.83011e-11
1.9935e-13
1.48122e-13
0
-4.53928e-13
-2.02171e-14
3.32292e-13
-3.92087e-14
6.65939e-13
4.92232e-14
-5.46826e-13
1.42123e-14
0
1.48052e-13
1.36342e-11
3.2415e-13
-1.36683e-11
2.04837e-13
-8.5193e-14
-1.89068e-11
-3.85091e-13
1.83975e-11
1.48051e-13
0
-6.30851e-13
1.73518e-11
5.61477e-13
-1.72869e-11
5.15016e-12
-1.89216e-13
-5.28907e-12
-3.74947e-14
1.48001e-13
1.80487e-11
1.8103e-11
1.47607e-13
2.27083e-13
-2.98463e-13
-1.35466e-13
-1.41962e-11
-1.72501e-11
1.43097e-11
1.7309e-11
1.74515e-11
1.78931e-11
-2.26769e-11
-1.41796e-11
1.94133e-11
1.08686e-11
-1.96878e-11
3.36488e-12
2.31975e-11
1.47898e-13
-1.87802e-11
-1.98931e-11
1.80359e-11
4.27742e-11
3.2108e-11
-2.42894e-11
-3.25366e-11
5.86695e-13
1.9175e-12
7.3943e-13
1.47875e-13
-3.07453e-14
-1.82711e-13
1.68116e-13
5.88457e-13
-5.06064e-16
5.09811e-13
-2.85263e-13
-8.72279e-13
-1.47888e-13
-2.38107e-11
-1.79176e-11
2.36143e-11
1.7851e-11
-2.41129e-11
-2.44759e-11
2.43664e-11
5.69869e-12
-1.37546e-13
1.8636e-11
1.47939e-13
1.15484e-13
-1.11836e-14
4.25037e-13
-1.21079e-13
-6.37056e-13
-1.26213e-13
1.53061e-13
1.89129e-11
1.87895e-11
-2.33837e-11
-2.24523e-11
2.33412e-11
4.74996e-11
5.09819e-13
-2.51803e-11
-6.38023e-13
1.8667e-13
-4.93751e-14
0
1.48043e-13
-8.28235e-13
-2.95295e-13
1.09428e-12
-2.00625e-11
-3.52967e-13
-2.80359e-12
2.88321e-11
2.27001e-11
-2.82777e-11
-1.87922e-11
-1.87123e-11
5.17132e-13
-4.35978e-13
-4.70612e-13
5.6849e-13
-3.45677e-13
-2.2272e-13
3.10592e-13
-1.47972e-13
-8.87659e-13
2.4331e-11
2.50127e-11
-4.87471e-13
-2.15464e-11
2.0819e-13
2.08491e-11
1.84584e-11
3.46841e-14
-1.83453e-11
-1.62701e-12
1.81531e-11
3.47233e-12
-1.70228e-11
-5.6482e-13
1.69783e-11
4.07566e-11
2.83378e-15
-2.34755e-11
-1.47914e-13
8.87305e-13
1.17557e-12
1.44022e-13
-2.524e-11
-2.70075e-11
2.54096e-11
2.69531e-11
-3.81208e-14
4.56787e-13
5.9157e-13
2.26245e-11
2.22955e-11
-3.86245e-13
-2.244e-11
3.11868e-13
2.25331e-11
-1.98064e-11
1.76762e-11
2.28943e-11
-1.39012e-11
2.27723e-11
1.19155e-13
-2.27526e-11
2.51322e-14
1.06641e-13
-1.12642e-13
-2.33262e-13
1.74053e-13
1.74198e-11
1.70069e-11
0
1.85752e-11
-1.64154e-13
-1.93524e-11
1.47464e-13
-8.4705e-14
-3.10869e-14
2.33461e-11
-2.54064e-13
-2.2628e-11
-1.47907e-13
2.04518e-13
-9.37749e-14
-2.38931e-11
-8.37317e-13
2.37335e-11
3.70341e-13
-4.1586e-13
5.91667e-13
2.95836e-13
-1.47939e-13
-1.80239e-13
-5.65008e-14
2.81701e-13
-2.42233e-14
-8.4291e-14
1.16426e-15
-1.83722e-11
-1.48071e-13
1.81976e-11
2.95928e-13
-5.50371e-14
-3.86369e-13
-7.23966e-14
1.59585e-13
2.83285e-12
-6.90683e-15
-2.80041e-12
2.14659e-13
0
-8.94951e-12
-9.66574e-12
-6.3015e-13
1.00919e-12
-2.94345e-13
-9.08034e-13
2.11293e-13
-6.16031e-14
-8.47421e-14
-3.6957e-13
-7.38528e-14
-1.81912e-14
-3.02937e-13
1.97316e-11
-5.10172e-12
-2.00866e-11
5.01261e-12
4.64468e-13
2.36566e-13
2.2176e-13
-5.17546e-13
-9.48551e-14
-1.70957e-11
-1.88735e-14
-5.18335e-12
-1.85778e-11
2.27462e-11
1.86008e-11
1.97741e-13
2.21788e-13
-7.38254e-14