/*--------------------------------*- C++ -*----------------------------------*\
  =========                 |
  \\      /  F ield         | OpenFOAM: The Open Source CFD Toolbox
   \\    /   O peration     | Website:  https://openfoam.org
    \\  /    A nd           | Version:  10
     \\/     M anipulation  |
\*---------------------------------------------------------------------------*/
FoamFile
{
    format      ascii;
    class       volScalarField;
    location    "1";
    object      gradTz;
}
// * * * * * * * * * * * * * * * * * * * * * * * * * * * * * * * * * * * * * //

dimensions      [0 -1 0 1 0 0 0];

internalField   nonuniform List<scalar> 
46825
(
1.49086e-13
0
-1.48932e-13
2.95945e-11
4.45697e-13
-1.88679e-11
1.48719e-12
2.96386e-11
2.98155e-13
2.47505e-11
5.96213e-13
-1.4893e-13
1.48581e-13
-3.04928e-11
2.18516e-11
1.47648e-13
-4.44079e-13
3.12029e-11
-2.97867e-13
-7.45312e-13
-2.54627e-11
0
-5.49499e-11
-3.234e-11
-2.90893e-13
-5.81788e-13
-1.46336e-13
-2.11236e-11
-7.42861e-13
-5.95649e-13
-4.46072e-13
0
-1.03895e-11
3.78636e-11
7.83746e-12
8.12246e-12
-5.7587e-13
-4.56551e-11
0
-5.94772e-13
2.48079e-11
4.42931e-13
-1.9782e-11
-2.8502e-13
9.004e-12
-8.86327e-12
-1.42508e-13
-4.31998e-11
1.62405e-12
-1.18838e-12
-2.46623e-11
1.4767e-13
-4.56843e-11
0
8.30169e-12
-3.70056e-11
2.38037e-11
0
1.47664e-13
2.97125e-13
-1.04116e-12
8.88471e-13
-1.33254e-11
-3.24129e-11
1.16894e-11
-1.85318e-12
1.16683e-11
8.49291e-12
4.44217e-13
-8.92385e-13
-4.46889e-13
0
-1.47831e-13
-1.85976e-11
-1.73158e-11
-2.91023e-13
-2.92875e-13
3.42971e-11
-4.01349e-11
2.97917e-13
-6.85861e-12
-1.48984e-13
2.27431e-11
-1.48082e-13
-1.47687e-12
2.45161e-11
4.44253e-13
-2.66086e-11
0
5.96405e-13
0
2.98193e-13
1.48959e-13
7.43695e-13
-1.04007e-12
1.48584e-13
5.94981e-13
1.19174e-12
0
-2.65444e-11
3.44645e-11
-1.49346e-13
3.13605e-11
3.07426e-11
-2.98375e-13
-1.89467e-11
3.96968e-11
5.82422e-12
-1.49359e-13
0
-3.28495e-11
1.12218e-13
2.83512e-14
2.28844e-12
9.03911e-12
1.6977e-12
1.44593e-14
3.90462e-11
-3.74075e-13
-7.46658e-13
-2.07511e-11
8.28484e-14
5.06551e-12
-3.32156e-11
2.95805e-13
-4.67177e-11
2.95934e-13
1.69334e-11
-4.88478e-13
-2.98595e-13
3.16291e-11
9.80334e-12
0
7.43659e-11
2.90624e-13
1.16147e-12
-2.64992e-11
-3.82995e-11
-7.60779e-12
3.14805e-11
2.56552e-11
1.6134e-11
6.35919e-11
-8.71846e-13
2.87475e-13
-2.87087e-13
8.65041e-13
-6.42147e-11
-4.47511e-13
-4.07196e-11
-2.47627e-11
1.87705e-11
-2.12893e-11
5.11063e-11
-1.66512e-11
-3.6981e-11
0
0
7.48602e-13
-1.49166e-13
-8.95413e-13
-5.16169e-11
-1.27291e-11
-3.17546e-11
5.76776e-13
-2.30407e-12
-1.44602e-11
4.61079e-11
9.26006e-12
-4.47681e-13
-4.4803e-13
4.00581e-12
-1.75366e-11
-1.70999e-11
8.79877e-13
-3.89786e-11
-5.08081e-11
3.49221e-11
1.76977e-11
2.28487e-11
1.4936e-13
-1.12246e-13
9.97534e-12
8.79878e-12
5.16883e-13
-8.93281e-12
-9.46866e-12
-1.4177e-12
9.61608e-12
8.96163e-13
0
-4.48054e-13
1.49332e-13
8.9537e-13
1.49176e-13
2.80457e-11
-1.49238e-13
4.48038e-13
0
1.49229e-13
4.4749e-13
-2.78163e-11
8.12607e-13
-7.8731e-14
-2.75101e-13
2.30543e-11
1.90363e-11
-2.3497e-11
1.08948e-12
-2.40198e-11
-4.72225e-11
0
0
3.82814e-11
8.69284e-12
-4.49882e-12
-6.7062e-11
-6.54106e-11
0
-2.82036e-13
2.35694e-13
-2.98736e-13
-1.46818e-10
3.02715e-11
7.33644e-11
1.15873e-10
5.94912e-11
8.38058e-11
-6.00634e-13
-2.87363e-11
3.87135e-12
-1.34552e-11
9.32332e-11
5.81265e-06
2.64089e-06
2.69787e-06
2.34321e-06
7.85572e-07
9.03535e-13
2.88921e-13
-9.77858e-14
-2.997e-13
3.04372e-13
2.63771e-06
-1.76303e-05
-1.80659e-05
-1.57088e-05
1.0145e-06
2.84376e-11
-2.4424e-11
-2.52144e-11
4.88781e-11
8.35255e-11
2.7012e-06
-1.80555e-05
-1.85268e-05
-1.60237e-05
1.02533e-06
5.75402e-11
2.52733e-11
-6.06697e-14
-1.13748e-11
5.79789e-11
2.72995e-06
-1.56436e-05
-1.60173e-05
-1.39034e-05
9.69338e-07
6.03828e-13
8.21958e-14
2.61968e-13
8.9595e-13
7.9929e-11
2.93869e-07
1.00985e-06
1.02458e-06
9.69399e-07
-3.46465e-09
4.57009e-11
-1.45366e-12
6.67752e-12
2.98392e-13
5.13609e-11
2.77145e-11
-7.22968e-11
-1.45354e-11
5.193e-11
4.90108e-11
2.99101e-13
-3.9479e-13
-4.47513e-13
-2.67954e-11
-1.16188e-13
-1.01977e-13
7.10393e-13
2.09253e-13
-3.95576e-13
2.19076e-11
1.97401e-13
2.70028e-11
-3.46723e-11
-8.14224e-14
-3.22185e-12
3.3898e-11
3.60095e-11
8.51028e-13
-1.0133e-11
1.42773e-13
2.71646e-11
1.48854e-13
3.26994e-11
2.97015e-13
-4.90234e-13
-2.48396e-10
-3.82634e-10
-3.23171e-10
-2.35097e-10
4.41579e-12
5.01644e-11
-2.13993e-13
-1.21067e-13
-2.64096e-12
2.32539e-08
-2.72436e-05
-2.70468e-05
-2.65334e-05
-2.70052e-05
-2.94005e-05
-9.13424e-10
-2.48558e-11
-3.08915e-11
-2.6662e-10
-3.01399e-05
-224.954
-292.946
-293.576
-292.056
-1.4951
6.59586e-08
-5.67991e-11
6.31679e-13
-3.48564e-10
-2.69502e-05
-292.941
-404.408
-405.89
-402.144
-2.80661
-2.64724e-08
3.97669e-11
-2.48671e-11
-3.5391e-10
-2.67702e-05
-293.553
-405.874
-407.445
-403.53
-2.8184
-9.04729e-09
3.56189e-11
7.47162e-13
-3.35961e-10
-2.69943e-05
-291.047
-402
-403.519
-399.632
-2.79428
-6.13535e-08
-1.07996e-13
-3.92538e-13
-8.06232e-11
-2.93397e-05
-0.472243
-2.79986
-2.81805
-2.79419
-0.427286
1.9575e-07
-2.37487e-11
-2.29007e-11
2.96711e-13
-9.61488e-10
9.52344e-08
-2.05711e-08
-1.01227e-08
-5.67103e-08
1.97069e-07
3.56911e-11
-2.79045e-11
-1.33927e-12
5.58451e-13
-2.53568e-11
4.60027e-13
7.57906e-12
-2.71437e-11
9.35008e-13
3.61504e-12
-1.74509e-13
1.3395e-11
0
3.97452e-12
2.76586e-11
1.23324e-12
1.5518e-12
-2.15149e-11
-1.76006e-11
-8.3954e-15
-1.14225e-12
2.97342e-13
7.72892e-11
2.96347e-13
5.60396e-11
6.67561e-09
1.44607e-08
1.44282e-08
1.38439e-08
-5.18441e-10
-5.06701e-11
5.89802e-14
1.9818e-13
6.50776e-12
7.17129e-10
-0.0038741
0.0272908
0.027625
0.026886
-1.41983e-05
1.63882e-09
2.90267e-11
-2.94491e-12
5.79337e-09
0.013369
1.16362e-05
-2.72074e-11
2.05123e-12
1.44255e-08
0.0273044
3.19618e-05
6.01004e-11
2.63781e-11
1.43337e-08
0.0275297
3.26746e-05
4.36194e-12
-2.36155e-11
1.38638e-08
0.026883
3.0288e-05
-2.21872e-11
-2.9776e-14
-2.44467e-10
-7.44042e-06
-6.76434e-07
-1.2869e-11
-4.29847e-11
-5.92316e-13
1.71403e-09
2.04348e-05
3.22798e-05
3.27679e-05
3.02477e-05
-6.73874e-07
-3.36699e-11
2.66719e-13
4.4586e-13
4.23476e-11
-3.06395e-11
6.99824e-13
2.25757e-12
2.44308e-12
1.24903e-12
-5.43098e-11
-2.32734e-11
2.43787e-11
-2.31917e-11
-2.37962e-11
9.15672e-12
-3.40481e-11
-3.43269e-11
2.77321e-13
-5.95376e-11
-2.63791e-13
-5.03928e-11
0
3.56188e-11
-2.97272e-13
-5.02714e-11
1.22759e-09
3.41886e-09
3.36002e-09
3.14617e-09
-1.3394e-10
5.38832e-11
-6.03794e-14
-4.39415e-12
1.36179e-12
-6.08685e-09
0.000657622
0.000889746
0.000891702
0.000888137
-4.12912e-06
3.02579e-11
2.34804e-11
3.07936e-11
1.11188e-09
0.000405343
4.7348e-06
2.61221e-11
4.58334e-13
3.24454e-09
0.000890803
2.39019e-06
4.35366e-13
2.60448e-11
3.32746e-09
0.000891669
2.21042e-06
-3.42781e-11
-9.24181e-13
3.06549e-09
0.000888401
1.85111e-06
8.88379e-13
-4.44916e-13
2.70665e-12
-6.11704e-07
-4.38018e-08
2.20482e-12
2.30024e-11
-2.97733e-13
1.40349e-10
1.20007e-06
2.09607e-06
2.2109e-06
1.85083e-06
-5.42215e-08
-4.86664e-11
2.70825e-11
8.92018e-13
-4.51955e-13
5.77287e-11
2.11575e-13
-4.02008e-11
-3.17007e-13
6.47005e-14
3.19582e-12
-2.12963e-13
-1.35314e-11
2.97499e-13
6.19114e-11
-2.8663e-11
-1.50663e-13
4.55949e-13
-1.7091e-13
-6.70309e-13
-2.86269e-11
2.74248e-11
-1.48796e-13
-3.0416e-11
4.67516e-11
3.75723e-12
3.73458e-10
8.83262e-10
8.92515e-10
9.00508e-10
-1.11891e-11
-5.28085e-11
3.70087e-13
-3.04148e-11
3.20178e-12
-1.20702e-08
0.000161102
0.000301579
0.000201442
0.000300878
-3.90293e-06
8.46674e-11
4.19041e-13
1.07399e-12
2.87626e-10
0.00015885
3.01162e-07
2.87968e-11
-2.40368e-11
8.44528e-10
0.000301938
3.84827e-07
-3.41062e-11
1.37494e-13
8.37071e-10
0.000301574
2.78836e-07
-2.80404e-11
2.57097e-11
8.66832e-10
0.000300693
-1.03874e-07
2.26848e-11
1.8999e-13
-5.36282e-11
-5.39145e-07
1.48967e-08
1.32038e-11
4.29597e-11
5.96655e-13
5.24069e-12
1.76964e-07
2.38834e-07
3.09289e-07
2.5156e-07
-9.50387e-09
4.96871e-11
-4.17815e-13
1.48761e-13
-4.25704e-11
2.66808e-11
1.35541e-13
-3.8481e-11
-3.63467e-13
-4.93196e-13
3.18993e-11
2.39345e-11
-2.48477e-11
5.50649e-11
2.43642e-11
-3.75038e-11
3.05458e-11
2.65385e-11
1.47461e-13
6.49886e-11
5.04785e-13
2.32294e-11
-5.95465e-13
-3.49928e-11
-5.21485e-11
1.66968e-12
5.6816e-11
2.21613e-10
1.68194e-10
1.78061e-10
-3.27982e-11
-1.49282e-12
-7.95514e-13
-2.58443e-11
3.2671e-14
5.23316e-09
8.06041e-05
0.000302791
0.000102379
0.000202159
-5.78267e-06
4.13813e-11
4.23148e-13
-6.0418e-12
8.28599e-11
2.47142e-06
-3.3385e-08
-3.66267e-13
-1.8682e-13
2.62862e-10
0.000302548
-9.85972e-08
-1.91895e-13
2.34876e-11
3.08208e-10
0.000102384
-1.09602e-07
-2.51406e-11
5.34311e-13
1.74527e-10
0.000301826
-2.37566e-06
-4.11503e-11
1.17396e-13
-4.08542e-11
-3.78153e-07
-5.37035e-08
-1.03205e-12
5.16109e-14
-5.97294e-13
1.7171e-11
-9.88837e-08
3.93536e-08
-7.91612e-08
-3.18261e-08
-3.34988e-09
-3.01287e-13
1.7462e-13
2.97672e-13
2.52423e-14
-9.04084e-12
-2.11842e-13
3.38751e-11
3.48771e-13
-4.79625e-13
-6.80357e-12
2.55149e-11
-1.48862e-13
-4.46642e-13
-3.79904e-11
4.54211e-14
-2.54265e-14
2.42988e-11
-4.61852e-13
3.38921e-13
2.90564e-11
-2.76031e-11
1.48922e-13
-4.38883e-13
5.66327e-12
-1.70787e-12
-4.16453e-10
-1.46236e-09
-1.42379e-09
-1.30699e-09
4.53138e-11
2.09035e-12
2.51931e-13
3.04431e-11
-4.7566e-11
3.28739e-09
-0.000162387
-9.14368e-05
-0.000191608
8.00797e-06
-5.69018e-06
-9.07219e-11
-8.48975e-13
2.25228e-11
-3.86768e-10
-0.000164859
-1.11369e-06
-3.27943e-13
2.41231e-11
-1.4598e-09
-9.14483e-05
-2.04642e-06
-1.0087e-12
-7.49618e-13
-1.55513e-09
-9.18258e-05
-2.09437e-06
6.62566e-13
-2.89963e-11
-1.29455e-09
-9.08736e-05
-9.19134e-08
-1.59224e-13
1.43146e-13
1.50585e-13
-1.29077e-06
-2.90197e-07
-7.67814e-14
-4.99776e-14
-4.62936e-11
-1.37288e-10
-1.0491e-06
-2.0985e-06
-2.08934e-06
-1.79918e-06
3.51845e-08
-6.11892e-13
-6.56099e-13
-1.48893e-13
2.63517e-11
3.19443e-12
-3.40831e-11
3.66583e-11
1.08297e-12
5.6559e-13
-3.93235e-11
-5.58322e-13
1.48915e-13
-7.14825e-12
-3.57225e-11
-8.13243e-14
-3.03442e-11
-2.66829e-11
3.16116e-14
2.76202e-12
-5.43433e-13
-2.76793e-13
5.95841e-13
3.11038e-11
3.27886e-12
-1.17109e-12
-1.03338e-09
-2.1915e-09
-2.0031e-09
-2.39876e-09
1.28294e-10
-1.4929e-12
1.08676e-12
2.60406e-11
4.70664e-11
3.55797e-09
-0.00872173
-0.0205661
-0.0208942
-0.0204365
-1.23276e-05
-4.09573e-11
3.95757e-13
-2.37031e-11
-1.05308e-09
-0.00887936
-1.50079e-05
2.37229e-11
-7.27157e-14
-2.14578e-09
-0.020566
-2.53491e-05
-1.6626e-13
-2.42019e-11
-1.99966e-09
-0.0208937
-2.57252e-05
2.44468e-11
-2.52652e-11
-2.36157e-09
-0.0202371
-2.32614e-05
4.08884e-11
3.85797e-13
6.6274e-11
-3.19319e-06
2.57098e-07
2.29993e-13
-2.8602e-14
4.68893e-11
-3.34852e-11
-1.50225e-05
-2.53988e-05
-2.57335e-05
-2.35347e-05
2.6591e-07
-9.03484e-13
9.20532e-13
0
2.60776e-13
-2.37336e-11
6.5336e-13
3.67652e-13
-1.00845e-11
-1.45058e-13
-5.89165e-13
-2.55998e-11
7.44784e-13
-2.97885e-13
6.54447e-13
-2.85292e-14
-4.49427e-13
1.32384e-11
2.57822e-11
1.30894e-13
2.69957e-11
-2.45772e-11
-1.63864e-12
-7.86394e-13
-5.84253e-11
-1.66579e-13
2.3188e-11
-8.91487e-11
3.23934e-12
-8.95901e-11
-6.74958e-13
1.79157e-12
-5.3296e-13
-2.36922e-13
-6.39113e-11
-9.03668e-09
0.000127716
0.000118072
0.000118482
0.000118519
0.000118591
8.17604e-10
4.56926e-13
-2.35399e-11
-9.45021e-11
0.000126901
-1.0576e-07
-2.77655e-11
3.22617e-11
-6.20749e-11
0.000118113
-1.27978e-07
1.84973e-13
3.61123e-13
-3.85752e-11
0.000118683
-1.28125e-07
-6.73514e-13
2.80706e-11
-3.11333e-11
0.000118889
-1.26445e-07
-2.82203e-11
3.60953e-11
-1.29518e-12
0.00011897
1.26538e-08
-2.51172e-11
2.13937e-13
-1.19412e-12
7.71251e-10
-1.05793e-07
-1.28052e-07
-1.28202e-07
-1.26717e-07
1.26459e-08
4.66728e-11
1.65746e-13
2.97907e-13
9.85519e-13
1.99646e-13
3.33748e-11
7.94407e-13
-1.40406e-12
-1.07001e-12
3.95725e-11
-3.15167e-11
1.48964e-13
-2.47246e-11
-2.07348e-11
1.911e-13
-8.05891e-14
-2.36879e-11
1.79862e-11
-3.61913e-11
3.30059e-13
-1.22669e-13
0
-3.1554e-11
5.54536e-11
1.44116e-12
-5.24019e-11
5.15612e-11
-4.89638e-11
4.76886e-11
5.65063e-13
-6.24156e-11
-6.26567e-14
-3.96239e-14
6.42316e-11
-6.11983e-13
-5.79988e-13
1.17621e-12
-8.24601e-12
9.86519e-11
-2.61733e-13
9.3415e-12
-6.29211e-14
-6.30809e-13
5.00579e-11
-1.10211e-10
1.56575e-12
-2.35715e-11
-2.22593e-14
2.92952e-13
-2.3523e-11
-4.11388e-13
-5.47955e-13
-1.38156e-13
5.86377e-13
-1.0013e-10
1.75886e-13
1.45675e-13
2.49435e-11
5.41242e-11
2.34885e-12
1.4158e-12
2.48879e-11
-4.38337e-13
4.70837e-14
7.50758e-13
-9.05959e-12
-3.55245e-11
2.46858e-11
5.97279e-13
-2.02651e-11
9.95121e-13
7.23781e-11
6.12589e-11
6.26327e-11
2.63408e-11
-4.63984e-11
-1.44043e-12
2.48738e-11
8.77423e-14
-2.72917e-11
2.55742e-13
2.44757e-11
3.28993e-11
4.85052e-14
1.777e-12
4.17573e-13
-1.04268e-12
-5.95738e-13
-7.54009e-14
-8.27228e-15
-4.49717e-13
-5.1145e-11
-2.57809e-11
8.06122e-13
-2.10889e-12
5.65307e-11
1.19154e-12
7.87098e-13
5.24777e-11
-2.45384e-13
-4.94644e-11
2.9284e-13
8.79252e-13
-2.92454e-13
-4.57511e-13
6.03342e-11
3.28484e-11
2.26718e-13
1.65731e-13
-1.87956e-10
1.24045e-12
-2.4119e-12
1.18163e-12
-1.76641e-12
1.41473e-12
1.65027e-11
8.97226e-14
-4.41149e-14
-1.17076e-12
2.55367e-10
-5.15729e-11
4.95733e-11
-5.94895e-11
2.92826e-13
-9.23045e-11
-2.89047e-13
2.2681e-13
-5.86474e-14
-2.93069e-13
-1.77244e-12
6.41252e-11
-2.93576e-14
1.97905e-13
-5.41026e-11
-1.1776e-12
1.32428e-12
5.40301e-11
-3.64813e-11
-3.16143e-13
-2.2044e-12
4.98164e-11
2.51708e-11
2.80043e-11
2.38939e-12
-3.47057e-12
-1.3368e-12
3.0163e-13
-2.20568e-13
-8.42734e-11
-2.62757e-11
-3.01411e-13
-2.34658e-13
0
-9.07956e-13
1.03285e-13
3.83381e-13
-6.13383e-13
-7.50006e-13
-3.08235e-11
2.85699e-11
3.42422e-11
5.95761e-13
-4.02105e-12
5.57488e-11
3.86963e-13
6.25361e-13
5.69971e-11
-1.79671e-11
1.55967e-11
4.74402e-13
3.70279e-14
2.8446e-11
2.71297e-13
-5.24769e-11
-2.9957e-13
5.50321e-11
-4.59843e-11
5.86273e-13
-2.92488e-13
7.9387e-13
1.19482e-12
-2.14657e-13
-3.55309e-11
-1.25146e-12
6.12329e-13
-4.45416e-13
-1.17866e-13
0
-1.82565e-11
1.13649e-13
-5.44987e-12
-2.5442e-13
3.3033e-12
5.85425e-13
2.15574e-12
7.7005e-11
-6.94923e-14
8.53696e-14
5.85745e-13
-1.33571e-12
8.58627e-14
-3.0055e-14
3.6664e-11
-5.86243e-13
5.9099e-13
-6.43188e-11
-8.01489e-14
3.14381e-13
-2.92489e-13
1.35451e-10
-1.48532e-12
-2.48827e-11
2.77689e-13
-3.59301e-13
2.94472e-13
-4.97737e-11
5.85216e-11
-5.09645e-11
-2.38955e-12
-1.30939e-12
-3.15954e-13
2.90861e-13
5.07678e-13
2.1307e-11
4.48708e-11
0
-2.27746e-11
-2.57646e-11
-8.43152e-14
2.76643e-11
-3.00409e-11
-2.46509e-11
1.42402e-11
5.67285e-15
-1.25792e-12
8.98781e-14
0
2.97866e-13
-2.74444e-13
-6.31573e-14
4.0805e-13
1.26679e-11
-1.10257e-13
-2.4612e-12
-2.5476e-11
-3.17461e-11
2.45747e-11
2.49741e-11
5.96263e-13
5.31844e-13
-5.85387e-13
4.62693e-11
-5.8617e-13
8.77348e-13
2.52744e-13
-1.31412e-11
-5.54792e-11
-2.52668e-11
6.04779e-11
1.83689e-12
-3.96062e-13
-9.86287e-11
1.6547e-11
-5.88888e-13
1.08138e-10
-4.60397e-11
1.35562e-13
-2.09389e-13
-5.64887e-11
2.38139e-12
7.87983e-12
-2.16607e-11
2.61589e-11
-6.03245e-11
-1.16369e-10
-5.54986e-13
2.80066e-13
1.07147e-13
2.93075e-13
-5.90961e-13
1.812e-13
-3.91453e-13
2.52512e-11
5.84888e-13
-1.44278e-10
-2.89918e-13
-2.56671e-11
2.06409e-13
5.68654e-11
1.08571e-10
-6.74205e-11
-1.65992e-13
-2.84444e-12
1.34394e-11
-6.57743e-11
-6.69369e-11
1.75767e-13
-6.92109e-13
6.9736e-11
-4.47449e-11
0
-2.58322e-13
7.44655e-13
4.32246e-11
9.12924e-13
-1.14906e-14
-3.44898e-11
-1.10104e-13
3.18084e-11
-2.7707e-11
3.44901e-11
-5.95741e-13
3.87245e-12
6.56261e-13
5.80618e-13
-2.94996e-11
-3.33852e-11
3.32072e-13
-1.59764e-11
-2.69955e-13
4.34276e-13
-2.81515e-11
1.70004e-13
-5.96164e-13
1.47649e-13
4.44827e-11
1.757e-12
6.00798e-11
2.92441e-13
-3.90219e-13
1.22416e-11
8.90128e-15
3.52816e-11
-5.98786e-11
2.6321e-11
-9.61092e-11
5.54019e-13
0
5.88424e-13
3.57675e-12
4.50722e-11
-2.53475e-13
-2.91689e-12
5.70654e-11
1.33828e-10
-3.208e-11
-1.14201e-13
9.53133e-14
5.85643e-11
-1.3285e-13
-8.41319e-13
3.08283e-14
-3.6833e-11
5.86139e-13
1.41693e-10
8.21095e-13
-1.95723e-13
2.72465e-13
-5.84861e-13
-2.94186e-12
-7.58211e-13
-3.63656e-14
-4.35344e-13
-5.71134e-11
-1.75122e-12
1.42806e-10
-2.29196e-11
2.63774e-11
-5.07571e-12
6.64026e-11
6.73065e-11
-8.41245e-13
3.76185e-13
-2.08336e-11
6.64999e-11
0
-8.32038e-13
2.97895e-13
-1.77999e-13
-2.14628e-13
2.97336e-11
-8.28666e-14
-3.69847e-11
4.01871e-11
2.83189e-11
-6.33823e-14
-7.44742e-13
-1.48961e-13
-1.32544e-13
-6.39646e-14
-1.21471e-12
-7.31862e-14
-1.40836e-13
2.26249e-12
8.3909e-15
-5.42215e-13
-2.50294e-11
-1.63419e-12
2.98052e-13
5.30469e-11
-4.42798e-11
-5.31889e-11
-5.99993e-11
1.17351e-12
-8.82634e-13
6.14869e-11
3.63704e-11
1.25072e-11
-5.8035e-13
2.43961e-12
0
5.90844e-12
1.28388e-10
5.07503e-11
-3.15427e-12
-4.51772e-11
2.70217e-13
1.06757e-14
0
1.18456e-10
-1.90381e-12
-2.36711e-11
7.93441e-14
1.46926e-12
5.90829e-13
-5.12722e-11
2.73913e-13
-3.07888e-13
-6.76452e-12
-2.36663e-12
-5.15479e-11
5.16572e-13
-2.4982e-11
-8.80182e-13
1.14487e-10
-3.48681e-11
-2.5308e-11
-3.29015e-13
2.94237e-13
-1.44542e-12
-7.56683e-11
-2.33859e-13
-2.50458e-11
-8.0591e-12
-1.83928e-12
2.49186e-13
-7.33511e-13
-3.2645e-13
-4.88e-11
-6.71583e-11
-6.01805e-13
4.40825e-13
-2.97959e-13
-8.58687e-11
-1.01518e-12
1.21642e-13
3.52981e-11
4.10818e-13
5.81666e-13
-2.44892e-13
-7.87971e-11
1.48985e-13
1.48966e-13
1.93659e-13
-3.9964e-13
2.98689e-11
-1.57364e-13
5.36266e-13
1.62668e-13
2.78015e-14
1.12492e-13
2.98006e-13
2.59801e-15
5.96355e-13
-5.30694e-11
2.93495e-13
5.20232e-11
0
-5.78136e-11
-6.51674e-11
-6.03445e-11
-3.32477e-11
3.38133e-14
1.17543e-11
6.13733e-13
4.43778e-12
-3.817e-13
1.00214e-12
-9.50936e-13
-9.2588e-11
1.7114e-11
-2.56185e-11
-2.8235e-13
-2.93414e-13
1.26625e-12
-2.05095e-13
-3.07706e-11
-9.80926e-13
2.93886e-13
-9.3034e-11
1.00086e-10
-4.24948e-15
-3.31851e-13
7.35384e-12
1.00195e-10
5.08211e-11
-2.50165e-11
-6.30513e-14
1.17385e-12
1.91582e-12
3.53873e-11
-4.69408e-12
-1.61942e-13
6.27281e-11
-5.60524e-15
4.7759e-14
5.70934e-13
-2.87329e-11
-5.97488e-13
2.82775e-11
-6.02901e-13
1.43035e-12
-3.23018e-14
2.52347e-11
3.01634e-12
3.01422e-13
4.26307e-11
3.02471e-11
2.56324e-11
-2.20079e-14
3.25576e-11
1.6062e-13
-2.30329e-11
-4.05724e-11
-5.3496e-11
-1.0541e-13
3.09922e-11
5.95812e-13
-1.13885e-13
2.78022e-11
8.33736e-13
2.97805e-13
2.18015e-13
-4.64131e-13
-4.8806e-14
-2.9245e-13
1.48993e-13
-2.40651e-11
5.6951e-11
-6.01131e-11
7.08895e-11
0
0
1.14072e-10
6.62721e-11
-8.06535e-12
-1.35623e-11
1.58758e-11
-1.25925e-11
3.06805e-12
1.23579e-10
-5.88765e-13
5.89762e-13
-5.87928e-13
-9.20491e-11
1.26433e-10
-1.38931e-12
1.3452e-13
5.85656e-13
5.85772e-12
-2.62355e-13
5.55165e-11
2.15017e-13
-4.80206e-11
5.88753e-13
-4.78471e-11
4.5145e-13
2.79869e-13
-5.86148e-13
2.35902e-12
-5.76352e-13
-3.31513e-13
2.03474e-13
-2.9247e-13
6.46719e-12
-5.74695e-13
1.83267e-11
2.33349e-13
-6.32066e-11
5.92197e-11
7.03363e-11
9.25326e-14
1.12687e-15
-8.96187e-13
2.25336e-13
-4.91321e-11
7.61157e-11
3.96785e-14
-2.51458e-11
-1.23615e-13
-1.20555e-12
5.81933e-13
-2.97991e-13
4.27583e-11
2.42366e-11
-3.44733e-11
1.03268e-13
-3.98797e-12
-4.13967e-13
-3.76259e-11
7.62573e-12
1.49e-13
0
-7.5045e-13
-1.42439e-13
-3.03621e-11
1.90667e-11
-2.8587e-11
-5.52951e-11
-4.5026e-13
-5.08594e-13
2.59267e-11
-2.94074e-13
-5.75466e-11
6.11086e-11
-7.03069e-11
0
0
-5.73244e-11
-2.9424e-13
7.46841e-12
6.22388e-11
-2.76201e-13
1.11101e-12
3.68293e-12
1.15589e-12
-1.9462e-11
-1.00454e-10
-1.05403e-10
4.62951e-12
1.04859e-10
4.14828e-13
3.97765e-12
2.92839e-13
7.94052e-12
-8.58872e-13
3.04081e-11
-5.54776e-14
4.77243e-11
-1.22876e-12
5.38018e-11
-1.04605e-13
9.06298e-14
-4.83566e-11
-5.90897e-13
-6.16963e-11
2.51504e-11
3.54084e-13
1.1698e-12
2.35537e-12
-1.41468e-13
5.16952e-12
-2.8067e-13
2.8474e-13
3.43191e-13
-1.42091e-10
-2.5969e-11
-1.46834e-11
2.98727e-13
1.07079e-12
4.92114e-11
-7.57861e-11
-2.98298e-13
-4.75085e-11
-1.35883e-12
1.50722e-12
-1.9191e-11
-3.03971e-11
-2.63142e-11
1.47005e-13
-3.21006e-11
-6.15608e-13
2.31247e-11
-1.72517e-13
2.48216e-11
6.48182e-13
-3.05469e-11
0
6.81108e-13
-2.7805e-11
-3.00347e-11
-2.33223e-11
3.9836e-14
8.82327e-13
-2.41512e-11
-5.34284e-11
-2.90662e-11
5.995e-13
-4.92036e-11
-3.32012e-13
0
1.46432e-12
5.86233e-13
-2.92484e-13
-8.82704e-13
-1.19502e-12
-4.40706e-13
-3.67021e-11
-4.4303e-13
-6.13853e-13
-3.50554e-11
9.49629e-11
-5.31836e-12
-2.94441e-12
1.86656e-12
-1.03774e-10
1.32389e-12
2.33651e-11
-2.92861e-13
7.05895e-13
1.81742e-12
-5.57459e-11
3.1267e-11
8.78473e-13
-4.38895e-11
-5.35981e-11
-3.58058e-13
2.34251e-11
1.07568e-10
-1.09915e-10
6.21709e-11
6.81686e-13
-1.85256e-13
-2.04731e-12
5.88888e-13
7.20719e-11
7.01086e-12
-2.4028e-11
-6.63566e-13
-9.08093e-13
7.22839e-11
5.37321e-13
3.393e-13
8.75364e-11
5.11928e-11
3.82686e-13
-2.68291e-14
-4.19342e-14
4.73558e-11
-7.65538e-13
6.84291e-11
-1.19894e-13
-2.89169e-11
2.804e-11
-2.37827e-11
6.79088e-11
9.60445e-15
-2.27793e-11
2.30079e-11
3.78497e-11
2.67373e-11
-1.93783e-12
5.96492e-13
8.83419e-13
7.72411e-13
2.96571e-11
-1.86441e-11
2.80419e-11
5.5185e-11
2.46562e-11
2.49825e-11
-2.64016e-11
9.33592e-13
4.98147e-11
5.15565e-11
7.14673e-11
-1.75699e-12
2.93091e-13
-5.26434e-11
-2.94245e-13
5.97569e-13
-5.34824e-11
-4.27374e-11
5.23337e-11
1.84059e-12
-1.33333e-12
5.89597e-13
0
8.77185e-11
-1.30048e-12
-6.50512e-13
2.54065e-11
-3.73495e-12
5.27112e-11
-1.4989e-10
3.71569e-14
3.29829e-13
-2.23235e-11
5.12407e-11
1.06147e-10
-6.44086e-13
2.05407e-13
-3.37185e-14
-7.32672e-12
-3.54406e-12
-1.66513e-13
-2.023e-13
-2.80907e-11
1.16988e-12
0
-7.19328e-11
2.84614e-13
-3.60235e-11
1.59489e-12
-9.78865e-11
-7.3134e-11
2.50825e-11
1.97914e-11
-8.69471e-11
-1.08059e-10
-2.49415e-11
2.69531e-13
4.8349e-11
5.15847e-11
-5.10839e-13
-6.90181e-11
4.32652e-13
1.49161e-13
3.03178e-13
-1.05225e-14
6.43136e-13
6.62367e-13
5.02304e-13
4.17188e-13
-2.94722e-11
-2.92768e-11
1.49172e-13
1.49254e-13
-5.75524e-13
1.45882e-12
3.03911e-11
2.29141e-11
-2.18987e-13
-5.29842e-13
2.46414e-11
5.37359e-11
2.88107e-11
-2.63151e-11
-6.09043e-11
-5.12923e-11
-7.71844e-11
0
-1.46919e-12
5.30762e-11
-4.74336e-11
-4.9624e-11
4.10696e-13
3.40758e-11
-5.2402e-11
-6.12068e-13
7.67324e-13
4.22987e-11
5.88417e-13
9.62141e-11
1.24694e-10
-6.02317e-13
3.13437e-13
-2.3755e-11
-5.2522e-11
1.04813e-10
-6.61948e-11
2.35577e-11
-3.0786e-11
-5.14232e-11
-9.57e-11
5.65061e-11
4.00212e-14
-2.36997e-11
-5.35247e-11
1.17596e-12
-1.17633e-12
-1.26362e-13
2.2217e-13
4.69477e-11
-5.27656e-12
-1.12594e-13
-1.858e-13
-8.44892e-12
-8.42432e-13
-2.1321e-14
7.37948e-11
-7.961e-15
4.3751e-14
0
5.68818e-11
-4.42777e-11
8.64032e-13
-4.91032e-11
-5.21373e-11
1.71116e-12
-3.01277e-13
2.37872e-11
2.49295e-11
-7.03387e-11
2.21684e-13
-3.36333e-11
-4.31079e-13
2.63505e-11
-2.33729e-11
7.55277e-12
7.01793e-12
2.09024e-12
-2.462e-11
-7.80548e-13
-1.6745e-13
8.34141e-13
6.88368e-14
7.02807e-14
5.50077e-15
3.09255e-11
-2.41486e-11
5.9689e-13
-9.17384e-13
-5.07731e-12
3.71335e-13
6.53177e-12
-2.97701e-13
1.78729e-12
-2.67584e-12
4.6921e-11
4.87505e-11
2.45751e-11
4.2797e-11
-9.9203e-12
3.05894e-12
2.03946e-10
1.12472e-10
-9.18826e-11
1.00626e-10
2.96346e-12
6.82169e-13
-3.9678e-13
2.28748e-11
2.97485e-13
-2.83623e-12
6.5964e-11
6.56227e-13
4.70132e-11
2.10192e-13
-1.76286e-11
-5.50235e-11
3.4505e-13
-2.55186e-13
5.41548e-13
1.18319e-10
-6.0198e-13
4.49503e-13
2.80403e-11
-4.6191e-11
4.72543e-12
-1.1997e-12
1.46368e-13
3.62914e-11
6.62692e-13
-1.13583e-10
7.42433e-14
-3.32809e-13
6.56706e-11
0
1.58784e-12
6.94867e-11
-1.50347e-12
1.80602e-12
8.99772e-13
-1.12854e-10
1.8092e-12
-1.39947e-13
0
-1.94707e-13
-1.84475e-13
-3.25079e-13
2.67153e-11
2.97326e-13
2.69212e-11
2.9502e-11
2.87626e-11
-7.46291e-13
-8.93264e-13
8.14267e-15
-1.38286e-12
1.70132e-13
-1.79588e-13
-3.4647e-13
3.08527e-11
2.43705e-11
2.60405e-11
4.46635e-13
2.64439e-11
6.45835e-11
0
-6.73994e-13
5.23812e-13
-2.96748e-13
3.26153e-12
-5.92869e-13
-2.97476e-13
-7.23909e-12
3.74632e-13
9.61189e-12
3.83806e-11
-2.58953e-11
5.31999e-12
1.55394e-11
4.73687e-11
-5.55197e-11
-5.81618e-13
-2.11045e-13
6.1471e-14
-4.85378e-11
5.89404e-13
1.68486e-11
-1.00768e-12
-4.47402e-11
-4.38192e-11
-1.71414e-12
5.41228e-11
-9.18399e-14
-4.74611e-13
1.54905e-13
-5.91464e-13
-1.92086e-11
-2.05412e-11
2.26352e-11
-2.02559e-11
-3.48544e-12
-2.9659e-12
1.94172e-13
1.0482e-13
-1.77909e-13
1.02947e-10
-6.36473e-12
1.93692e-11
-1.30382e-11
1.53824e-11
-1.6789e-10
0
-2.52635e-11
2.73443e-11
1.06666e-12
1.49021e-10
-5.01886e-11
-5.31041e-11
-9.1309e-11
-3.78197e-13
-1.16149e-12
-4.71161e-11
-3.842e-13
3.28358e-11
0
6.94233e-11
-9.60029e-11
-1.3477e-10
5.80931e-13
2.72943e-11
2.84143e-12
5.68043e-11
-2.35115e-11
-8.21412e-15
-4.67002e-11
6.0144e-11
-8.87153e-13
-4.68613e-11
5.10395e-11
-5.92627e-13
1.11237e-10
-1.78649e-12
-2.33921e-11
3.72179e-12
4.28904e-11
-1.65404e-14
-1.18416e-14
2.73493e-11
1.80265e-13
-2.66705e-13
-8.02717e-12
-4.28192e-14
-2.97813e-13
2.34576e-11
5.93528e-13
-1.18548e-12
1.4803e-13
1.47989e-13
1.25789e-11
1.48024e-13
-7.73495e-11
0
-7.42328e-13
-2.35889e-11
3.14294e-11
9.23247e-13
1.38591e-13
-1.69704e-12
-3.65525e-13
-2.39966e-11
2.82171e-13
1.85815e-11
4.45139e-13
-2.26654e-11
9.03277e-12
6.15838e-11
0
-4.37496e-14
6.90551e-14
-6.16529e-13
8.81762e-13
5.31839e-11
2.8626e-12
-2.32334e-11
7.63609e-11
3.67102e-14
-1.17739e-12
2.95347e-13
-9.43804e-13
2.53789e-11
1.68453e-12
1.1968e-11
-2.9601e-13
-2.41159e-11
2.50805e-11
1.31456e-12
1.9519e-14
-2.16536e-11
-1.82674e-14
1.95553e-11
-4.85754e-11
9.36167e-12
-3.9953e-12
5.91831e-13
-1.3033e-11
5.02993e-11
4.54652e-12
1.4019e-11
2.54557e-12
1.42849e-11
4.80857e-11
-1.38828e-11
-1.03587e-12
3.31524e-11
9.50056e-12
1.70116e-13
4.41532e-11
2.26583e-12
2.66731e-13
8.09942e-13
-2.50053e-11
-1.7758e-11
2.96055e-13
5.9265e-13
1.53801e-11
-6.23179e-11
-1.71368e-12
-2.94384e-13
1.77e-12
-6.47169e-11
1.58359e-11
-9.13017e-12
-2.20802e-11
-4.21379e-11
7.49141e-12
-6.1748e-11
-1.26716e-11
1.85448e-11
-2.65377e-11
2.60586e-11
8.70865e-12
7.55279e-12
-1.48395e-13
-2.44958e-11
-3.20485e-11
9.36484e-14
-1.47993e-13
-2.67809e-11
-5.91861e-13
-2.66407e-11
0
-1.48379e-13
7.42413e-13
8.89222e-13
-1.4813e-13
-1.4802e-13
-2.91444e-11
9.76267e-12
0
-3.04758e-11
-2.48668e-11
-2.96252e-13
-1.48201e-13
3.74741e-11
8.87896e-12
-7.39135e-13
2.5267e-11
3.87205e-11
-7.38931e-13
3.48702e-11
1.47817e-13
-3.03369e-11
2.88831e-11
7.40004e-13
-1.4782e-13
-2.82565e-11
-9.59107e-13
-4.43077e-13
7.75367e-12
5.16401e-13
9.8113e-12
1.66238e-12
2.45701e-11
0
1.27067e-11
-8.07848e-12
-7.86836e-12
-2.0358e-12
-8.10555e-12
-1.21848e-12
5.86273e-12
-2.95427e-13
1.4792e-13
0
-1.56651e-11
1.26274e-11
1.48061e-13
3.57501e-11
-2.22513e-11
1.4786e-13
-8.85202e-13
-1.4773e-12
-6.80295e-12
-1.03534e-12
-2.00988e-11
-3.35251e-11
1.74699e-11
-4.89536e-11
-2.41831e-11
1.47877e-13
-9.18275e-12
9.89738e-12
2.49937e-11
-3.55027e-12
-2.74824e-11
-1.10656e-12
1.48801e-11
2.75019e-11
1.47876e-13
2.71492e-11
7.5544e-12
9.74846e-12
2.95839e-13
1.48007e-13
-2.29112e-11
-8.48324e-13
7.63234e-12
1.10646e-13
-5.45781e-12
3.31646e-13
8.22178e-12
-1.47794e-13
2.30888e-11
-1.48121e-13
-2.95963e-13
1.61427e-11
-2.95412e-13
-2.52604e-11
7.38577e-13
-1.47696e-13
-2.70452e-11
0
1.4812e-13
1.77836e-12
1.33306e-11
-2.38291e-11
-4.43738e-13
-2.60273e-11
3.16458e-11
2.41082e-11
2.95982e-13
0
4.44599e-13
-1.48056e-13
2.96026e-13
1.03569e-11
-4.43746e-13
2.95805e-13
-3.65313e-11
8.8746e-13
5.57765e-11
-1.48008e-13
2.96103e-13
2.33851e-11
-3.01812e-11
-5.91523e-13
-1.47845e-13
1.47847e-13
4.4353e-13
1.47835e-12
2.95733e-13
0
2.96007e-13
5.00055e-11
-1.47872e-13
2.63096e-11
-7.39012e-13
-1.4784e-13
-5.91341e-13
0
-5.98535e-11
-3.13469e-11
-3.10678e-12
2.95809e-13
-3.76988e-11
3.26636e-11
1.47854e-13
5.76964e-12
1.47929e-13
-4.43464e-13
-2.74839e-11
2.9563e-13
-2.95784e-13
0
-5.91364e-13
-3.78465e-11
-1.47938e-13
5.92257e-13
2.73901e-11
4.43688e-13
-2.97046e-11
-3.29607e-11
-2.66169e-11
-1.59719e-11
2.95675e-11
-2.33575e-11
-1.47928e-13
-5.92215e-13
1.4805e-13
0
1.18222e-12
1.478e-13
5.91472e-13
-5.76819e-12
-2.9566e-13
-3.02954e-11
-2.39466e-11
7.39467e-13
4.43668e-13
-4.43343e-13
2.55582e-11
-3.20722e-11
-4.43652e-13
-7.39719e-13
-4.43584e-13
-3.31034e-11
-5.12726e-11
-2.9556e-13
2.54167e-11
-2.9546e-13
-4.43256e-13
-8.8704e-13
2.21897e-11
2.53085e-11
0
4.43571e-13
-2.95618e-13
2.95594e-13
0
-2.71934e-11
-2.9715e-11
0
-1.4799e-13
2.53158e-11
3.19681e-11
0
7.39413e-13
0
0
-1.47875e-13
1.47923e-13
-2.95975e-13
-2.96081e-13
7.39884e-13
-2.5744e-11
0
2.8841e-11
-9.90888e-12
1.47892e-13
-7.39494e-13
0
-2.57427e-11
-4.43912e-13
-3.74317e-11
-3.63891e-11
5.91576e-13
-2.80974e-12
-1.47879e-13
0
1.47872e-13
-1.47883e-13
-4.43747e-13
-2.21917e-11
-1.18336e-12
2.44023e-11
-1.47869e-13
1.47872e-13
3.2387e-11
1.03516e-12
2.88325e-11
-1.47854e-12
-2.95761e-13
6.06429e-12
0
-1.30132e-11
-2.54336e-11
4.43686e-13
1.0355e-12
5.91693e-13
1.47877e-13
-2.86822e-11
1.56728e-11
2.95761e-13
1.47888e-13
0
1.47882e-13
1.47927e-13
-7.39868e-13
2.23432e-11
1.47904e-13
4.43554e-13
-1.47847e-13
6.80186e-12
1.03523e-12
-3.99259e-12
2.5583e-11
-5.02932e-12
0
2.38214e-11
2.66212e-12
2.61685e-11
-1.47841e-13
4.43593e-13
-2.36635e-11
-7.3936e-13
-3.28245e-11
-1.33088e-12
-2.85451e-11
-2.95788e-13
1.92207e-12
-2.42436e-11
2.57243e-11
2.95743e-13
2.95827e-13
-2.57316e-11
-2.55787e-11
-3.54823e-12
1.47847e-13
-1.47842e-13
7.39119e-13
-8.8696e-13
1.47859e-13
0
2.95887e-13
-2.36658e-12
-1.47873e-13
8.87101e-13
2.64637e-11
1.47835e-13
2.76455e-11
-1.47856e-13
3.43112e-11
2.75143e-11
-1.9236e-12
-1.34626e-11
2.36643e-11
-1.03512e-12
-1.4786e-12
-3.16414e-11
-2.38065e-11
-1.47891e-13
2.95851e-13
-2.95913e-13
1.33137e-12
-2.58853e-11
-9.90941e-12
0
-2.95768e-13
2.44005e-11
-7.39421e-13
-3.28323e-11
-1.47911e-13
2.95844e-13
0
-2.9581e-13
0
-2.9577e-12
-1.47884e-13
1.47881e-13
-1.47878e-13
-5.91513e-13
-1.47892e-13
-1.47904e-13
-2.70653e-11
2.32187e-11
-4.43651e-13
7.39447e-13
3.22418e-11
8.87363e-13
2.83927e-11
2.79474e-11
4.43624e-13
3.03166e-11
1.47886e-13
-1.47883e-13
-5.72331e-11
-2.95818e-13
-1.77512e-12
7.39604e-13
4.43679e-13
-2.82427e-11
1.56733e-11
-1.47867e-13
-2.95764e-13
2.95763e-13
0
0
-1.18362e-12