/*--------------------------------*- C++ -*----------------------------------*\
  =========                 |
  \\      /  F ield         | OpenFOAM: The Open Source CFD Toolbox
   \\    /   O peration     | Website:  https://openfoam.org
    \\  /    A nd           | Version:  10
     \\/     M anipulation  |
\*---------------------------------------------------------------------------*/
FoamFile
{
    format      ascii;
    class       volScalarField;
    location    "2.3";
    object      gradTx;
}
// * * * * * * * * * * * * * * * * * * * * * * * * * * * * * * * * * * * * * //

dimensions      [0 -1 0 1 0 0 0];

internalField   nonuniform List<scalar> 
3000
(
-495.442
-4.53697
-0.0208824
-6.42659e-05
-1.48818e-07
-2.96208e-10
1.2923e-10
-1.9984e-11
0
1.24345e-10
-495.442
-4.53697
-0.0208824
-6.42659e-05
-1.48821e-07
-3.02425e-10
2.53131e-11
-1.68754e-11
-3.9968e-12
2.39808e-11
-495.442
-4.53697
-0.0208824
-6.42659e-05
-1.48835e-07
-3.11751e-10
8.88178e-13
1.56319e-10
1.06581e-11
-1.15907e-10
-495.442
-4.53697
-0.0208824
-6.42658e-05
-1.48675e-07
-3.65041e-10
0
0
-1.33227e-10
8.43769e-12
-495.442
-4.53697
-0.0208824
-6.42659e-05
-1.48823e-07
-2.85993e-10
1.58096e-10
1.33671e-10
-1.53655e-10
-1.28342e-10
-495.442
-4.53697
-0.0208824
-6.42659e-05
-1.48793e-07
-3.08642e-10
-2.57572e-11
1.56319e-10
3.64153e-11
-1.52323e-10
-495.442
-4.53697
-0.0208824
-6.42659e-05
-1.4866e-07
-1.84741e-10
2.22045e-12
0
-1.54099e-10
1.42109e-11
-495.442
-4.53697
-0.0208824
-6.42659e-05
-1.4883e-07
-3.34399e-10
1.2923e-10
1.90958e-11
-1.47438e-10
-7.10543e-12
-495.442
-4.53697
-0.0208824
-6.42659e-05
-1.48699e-07
-3.67262e-10
-1.26121e-10
1.22125e-10
-3.01981e-11
-1.23457e-10
-495.442
-4.53697
-0.0208824
-6.42659e-05
-1.48738e-07
-1.85185e-10
-6.21725e-12
-1.30118e-10
-1.02141e-10
1.31894e-10
-495.442
-4.53697
-0.0208824
-6.42659e-05
-1.48861e-07
-3.0953e-10
1.54987e-10
4.44089e-12
-1.34115e-10
3.10862e-12
-495.442
-4.53697
-0.0208824
-6.42659e-05
-1.48858e-07
-2.91323e-10
5.72875e-11
-2.17604e-11
1.42109e-11
-1.02141e-11
-495.442
-4.53697
-0.0208824
-6.4266e-05
-1.48808e-07
-3.05977e-10
7.99361e-12
9.32587e-11
6.21725e-12
-5.32907e-11
-495.442
-4.53697
-0.0208824
-6.42659e-05
-1.48795e-07
-3.43725e-10
-1.90958e-11
0
-3.10862e-11
-4.44089e-11
-495.442
-4.53697
-0.0208824
-6.42659e-05
-1.48875e-07
-2.61569e-10
8.83738e-11
0
-6.9722e-11
-5.77316e-12
-495.442
-4.53697
-0.0208824
-6.4266e-05
-1.4884e-07
-3.05977e-10
7.99361e-12
9.28146e-11
6.66134e-12
-2.22045e-11
-495.442
-4.53697
-0.0208824
-6.42659e-05
-1.48885e-07
-2.88214e-10
8.88178e-11
0
-7.01661e-11
-4.66294e-11
-495.442
-4.53697
-0.0208824
-6.42659e-05
-1.48809e-07
-3.57936e-10
1.24345e-11
0
-5.9508e-11
5.9952e-11
-495.442
-4.53697
-0.0208824
-6.42659e-05
-1.48793e-07
-3.0953e-10
-1.73195e-11
-5.77316e-11
-7.54952e-11
4.26326e-11
-495.442
-4.53697
-0.0208824
-6.42659e-05
-1.48775e-07
-3.15747e-10
1.17684e-10
0
-1.37224e-10
2.17604e-11
-495.442
-4.53697
-0.0208824
-6.42659e-05
-1.48837e-07
-3.11751e-10
8.88178e-13
1.56319e-10
1.06581e-11
-1.15907e-10
-495.442
-4.53697
-0.0208824
-6.4266e-05
-1.4884e-07
-2.41585e-10
2.08722e-11
2.84217e-11
-6.66134e-12
1.33227e-12
-495.442
-4.53697
-0.0208824
-6.42659e-05
-1.48757e-07
-3.55715e-10
-2.22045e-12
-1.82077e-11
-9.05942e-11
9.01501e-11
-495.442
-4.53697
-0.0208824
-6.42659e-05
-1.48876e-07
-2.91323e-10
7.54952e-11
-3.9968e-11
-3.55271e-11
7.99361e-12
-495.442
-4.53697
-0.0208824
-6.4266e-05
-1.48849e-07
-3.06422e-10
1.82077e-11
0
-1.82077e-11
8.21565e-11
-495.442
-4.53697
-0.0208824
-6.42659e-05
-1.48838e-07
-3.75699e-10
9.05942e-11
-1.82077e-11
-2.26485e-11
9.37028e-11
-495.442
-4.53697
-0.0208824
-6.42659e-05
-1.48849e-07
-2.96208e-10
3.9968e-11
0
-2.17604e-11
2.17604e-11
-495.442
-4.53697
-0.0208824
-6.42659e-05
-1.48804e-07
-3.66374e-10
-1.82077e-11
0
-7.54952e-11
5.72875e-11
-495.442
-4.53697
-0.0208824
-6.42659e-05
-1.48885e-07
-2.8777e-10
1.82077e-11
-1.82077e-11
4.9738e-11
3.90799e-11
-495.442
-4.53697
-0.0208824
-6.42659e-05
-1.48816e-07
-3.08642e-10
3.9968e-12
3.01981e-11
2.57572e-11
-2.57572e-11
-495.442
-4.53697
-0.0208824
-6.42659e-05
-1.48808e-07
-3.09974e-10
1.33227e-10
0
-1.33227e-10
8.43769e-12
-495.442
-4.53697
-0.0208824
-6.42659e-05
-1.48833e-07
-2.65565e-10
1.82077e-11
0
-3.10862e-11
5.32907e-12
-495.442
-4.53697
-0.0208824
-6.42659e-05
-1.48876e-07
-2.96652e-10
2.84217e-11
4.92939e-11
1.15463e-11
2.66454e-12
-495.442
-4.53697
-0.0208824
-6.42659e-05
-1.48848e-07
-2.83773e-10
2.57572e-11
0
-4.39648e-11
-5.32907e-12
-495.442
-4.53697
-0.0208824
-6.42659e-05
-1.48847e-07
-3.55715e-10
-5.9952e-11
5.06262e-11
8.21565e-11
-8.21565e-11
-495.442
-4.53697
-0.0208824
-6.42659e-05
-1.48793e-07
-2.96208e-10
-1.68754e-11
-1.77636e-11
-7.54952e-11
-2.4869e-11
-495.442
-4.53697
-0.0208824
-6.42659e-05
-1.48793e-07
-3.5616e-10
-7.41629e-11
5.06262e-11
8.21565e-11
-8.26006e-11
-495.442
-4.53697
-0.0208824
-6.4266e-05
-1.48922e-07
-2.45137e-10
6.83897e-11
0
0
1.24345e-11
-495.442
-4.53697
-0.0208824
-6.42659e-05
-1.48853e-07
-3.3884e-10
2.04281e-11
-2.17604e-11
-6.9722e-11
3.41949e-11
-495.442
-4.53697
-0.0208824
-6.42659e-05
-1.48812e-07
-1.73195e-10
-1.68754e-11
-1.32339e-10
2.08722e-11
-2.08722e-11
-495.442
-4.53697
-0.0208824
-6.42659e-05
-1.48868e-07
-2.83329e-10
1.58096e-10
1.28786e-10
-1.53655e-10
-1.35447e-10
-495.442
-4.53697
-0.0208824
-6.42659e-05
-1.48913e-07
-2.41585e-10
7.54952e-11
-1.95399e-11
-5.72875e-11
2.57572e-11
-495.442
-4.53697
-0.0208824
-6.42659e-05
-1.48768e-07
-2.88214e-10
-7.4607e-11
-1.82077e-11
-1.82077e-11
1.82077e-11
-495.442
-4.53697
-0.0208824
-6.42659e-05
-1.48876e-07
-2.41585e-10
2.93099e-11
-9.05942e-11
2.39808e-11
7.59393e-11
-495.442
-4.53697
-0.0208824
-6.42659e-05
-1.48908e-07
-3.06422e-10
6.70575e-11
8.88178e-13
-6.79456e-11
6.70575e-11
-495.442
-4.53697
-0.0208824
-6.42659e-05
-1.48885e-07
-2.88214e-10
8.26006e-11
-1.82077e-11
-1.55431e-11
4.04121e-11
-495.442
-4.53697
-0.0208824
-6.42659e-05
-1.48861e-07
-3.05977e-10
6.70575e-11
8.88178e-13
0
6.70575e-11
-495.442
-4.53697
-0.0208824
-6.4266e-05
-1.48807e-07
-2.3892e-10
-2.53131e-11
0
-1.42109e-11
-5.32907e-11
-495.442
-4.53697
-0.0208824
-6.42659e-05
-1.48876e-07
-2.8777e-10
8.65974e-11
-1.82077e-11
-1.86517e-11
9.19265e-11
-495.442
-4.53697
-0.0208824
-6.42659e-05
-1.48865e-07
-3.11307e-10
2.17604e-11
-4.44089e-13
8.88178e-12
4.04121e-11
-495.442
-4.53697
-0.0208824
-6.42659e-05
-1.48835e-07
-1.55431e-10
-1.90958e-11
0
3.06422e-11
-1.52323e-10
-495.442
-4.53697
-0.0208824
-6.4266e-05
-1.48846e-07
-3.05977e-10
7.99361e-12
9.32587e-11
-3.64153e-11
-1.02141e-11
-495.442
-4.53697
-0.0208824
-6.4266e-05
-1.48839e-07
-3.06422e-10
7.10543e-11
0
-7.10543e-11
7.10543e-11
-495.442
-4.53697
-0.0208824
-6.42659e-05
-1.48793e-07
-2.32703e-10
-1.68754e-11
-8.26006e-11
6.21725e-12
7.10543e-11
-495.442
-4.53697
-0.0208824
-6.4266e-05
-1.48885e-07
-2.42029e-10
9.05942e-11
0
-9.05942e-11
2.62013e-11
-495.442
-4.53697
-0.0208824
-6.42659e-05
-1.48923e-07
-2.8777e-10
7.10543e-11
-1.86517e-11
-2.66454e-12
7.10543e-12
-495.442
-4.53697
-0.0208824
-6.42659e-05
-1.48781e-07
-3.15303e-10
-4.21885e-11
6.75016e-11
2.75335e-11
-2.75335e-11
-495.442
-4.53697
-0.0208824
-6.42659e-05
-1.48827e-07
-2.79332e-10
-5.68434e-11
8.88178e-13
2.4869e-11
-3.81917e-11
-495.442
-4.53697
-0.0208824
-6.42659e-05
-1.48771e-07
-2.66454e-10
-2.70894e-11
4.26326e-11
-2.22045e-11
-2.93099e-11
-495.442
-4.53697
-0.0208824
-6.42659e-05
-1.48794e-07
-1.52323e-10
2.13163e-11
4.44089e-13
1.33227e-12
-1.35447e-10
-495.442
-4.53697
-0.0208824
-6.42659e-05
-1.48819e-07
-1.79856e-10
2.9754e-11
-1.22569e-10
-2.9754e-11
-1.77636e-12
-495.442
-4.53697
-0.0208824
-6.4266e-05
-1.48921e-07
-2.44249e-10
7.59393e-11
0
-7.54952e-11
7.54952e-12
-495.442
-4.53697
-0.0208824
-6.4266e-05
-1.48843e-07
-2.88214e-10
0
0
4.9738e-11
6.35048e-11
-495.442
-4.53697
-0.0208824
-6.42659e-05
-1.48793e-07
-2.92211e-10
-5.37348e-11
5.06262e-11
6.17284e-11
-7.23865e-11
-495.442
-4.53697
-0.0208824
-6.4266e-05
-1.48889e-07
-3.06422e-10
4.88498e-11
1.90958e-11
0
-8.88178e-13
-495.442
-4.53697
-0.0208824
-6.42659e-05
-1.48884e-07
-2.38032e-10
3.41949e-11
-2.75335e-11
-7.99361e-12
1.33227e-11
-495.442
-4.53697
-0.0208824
-6.4266e-05
-1.48796e-07
-3.06422e-10
-4.88498e-11
0
4.88498e-11
1.82077e-11
-495.442
-4.53697
-0.0208824
-6.4266e-05
-1.48858e-07
-2.9754e-10
-2.53131e-11
4.92939e-11
5.28466e-11
-5.28466e-11
-495.442
-4.53697
-0.0208824
-6.4266e-05
-1.48794e-07
-2.38476e-10
-3.10862e-12
-4.88498e-11
-1.95399e-11
7.41629e-11
-495.442
-4.53697
-0.0208824
-6.42659e-05
-1.48865e-07
-3.11307e-10
2.13163e-11
3.01981e-11
8.43769e-12
-8.43769e-12
-495.442
-4.53697
-0.0208824
-6.42659e-05
-1.48855e-07
-2.2693e-10
1.53655e-10
-1.28786e-10
0
-6.21725e-12
-495.442
-4.53697
-0.0208824
-6.42659e-05
-1.48809e-07
-2.94431e-10
1.24345e-11
-1.24345e-11
0
1.24345e-11
-495.442
-4.53697
-0.0208824
-6.42659e-05
-1.48808e-07
-3.45057e-10
-1.42109e-11
-2.13163e-11
-5.77316e-11
5.77316e-11
-495.442
-4.53697
-0.0208824
-6.4266e-05
-1.48921e-07
-3.09086e-10
6.21725e-12
2.04281e-11
-6.21725e-12
5.9508e-11
-495.442
-4.53697
-0.0208824
-6.42659e-05
-1.48772e-07
-3.61045e-10
-6.75016e-11
6.79456e-11
2.57572e-11
-7.23865e-11
-495.442
-4.53697
-0.0208824
-6.42659e-05
-1.48773e-07
-3.53939e-10
-5.63993e-11
0
2.57572e-11
5.59552e-11
-495.442
-4.53697
-0.0208824
-6.42659e-05
-1.48845e-07
-2.9754e-10
-3.77476e-11
4.61853e-11
2.57572e-11
-5.06262e-11
-495.442
-4.53697
-0.0208824
-6.4266e-05
-1.48839e-07
-3.05977e-10
7.63833e-11
0
-5.68434e-11
0
-495.442
-4.53697
-0.0208824
-6.42659e-05
-1.48845e-07
-2.47802e-10
-3.81917e-11
-4.92939e-11
-1.42109e-11
7.77156e-11
-495.442
-4.53697
-0.0208824
-6.42659e-05
-1.48789e-07
-3.09086e-10
-6.21725e-12
1.56763e-10
-1.06581e-11
-1.41664e-10
-495.442
-4.53697
-0.0208824
-6.42659e-05
-1.48663e-07
-1.79856e-10
-1.26121e-10
0
-3.01981e-11
-1.23457e-10
-495.442
-4.53697
-0.0208824
-6.4266e-05
-1.48829e-07
-2.43805e-10
-1.73195e-11
-5.77316e-11
-7.54952e-11
4.26326e-11
-495.442
-4.53697
-0.0208824
-6.42659e-05
-1.48839e-07
-2.88214e-10
1.82077e-11
-1.82077e-11
-1.82077e-11
3.9968e-11
-495.442
-4.53697
-0.0208824
-6.42659e-05
-1.48875e-07
-3.05977e-10
7.59393e-11
-7.23865e-11
-2.26485e-11
-4.44089e-13
-495.442
-4.53697
-0.0208824
-6.42659e-05
-1.48884e-07
-2.42029e-10
6.75016e-11
0
-6.75016e-11
-4.61853e-11
-495.442
-4.53697
-0.0208824
-6.42659e-05
-1.48771e-07
-2.38476e-10
-1.46549e-11
-4.9738e-11
-6.66134e-12
3.41949e-11
-495.442
-4.53697
-0.0208824
-6.42659e-05
-1.48868e-07
-3.15303e-10
2.79776e-11
1.73195e-11
8.88178e-13
-1.82077e-11
-495.442
-4.53697
-0.0208824
-6.42659e-05
-1.48814e-07
-2.65565e-10
-2.57572e-11
1.77636e-11
7.86038e-11
-6.83897e-11
-495.442
-4.53697
-0.0208824
-6.42659e-05
-1.48867e-07
-2.8777e-10
6.43929e-11
3.41949e-11
-8.26006e-11
-3.41949e-11
-495.442
-4.53697
-0.0208824
-6.42659e-05
-1.488e-07
-1.52323e-10
-1.15463e-11
-1.28342e-10
-7.10543e-12
-2.75335e-11
-495.442
-4.53697
-0.0208824
-6.42659e-05
-1.48738e-07
-3.13971e-10
8.88178e-13
-1.33227e-12
-1.09246e-10
2.13163e-11
-495.442
-4.53697
-0.0208824
-6.42659e-05
-1.48814e-07
-3.11307e-10
-1.06581e-11
-4.88498e-12
-3.9968e-12
1.59872e-10
-495.442
-4.53697
-0.0208824
-6.42659e-05
-1.48864e-07
-3.06866e-10
-8.88178e-13
2.62013e-11
0
-2.53131e-11
-495.442
-4.53697
-0.0208824
-6.42658e-05
-1.48825e-07
-2.27818e-10
9.76996e-12
-1.27898e-10
1.46549e-11
1.15463e-11
-495.442
-4.53697
-0.0208824
-6.42659e-05
-1.48823e-07
-3.0953e-10
0
3.01981e-11
0
-3.01981e-11
-495.442
-4.53697
-0.0208824
-6.42659e-05
-1.48816e-07
-3.29958e-10
2.08722e-11
4.44089e-12
1.33227e-12
1.73195e-11
-495.442
-4.53697
-0.0208824
-6.42659e-05
-1.48842e-07
-3.12195e-10
7.10543e-12
-7.10543e-12
-2.9754e-11
-2.30926e-11
-495.442
-4.53697
-0.0208824
-6.42659e-05
-1.48825e-07
-3.24629e-10
-6.21725e-12
8.43769e-12
-1.11022e-11
-1.46549e-11
-495.442
-4.53697
-0.0208824
-6.42659e-05
-1.48855e-07
-3.29958e-10
1.33671e-10
2.75335e-11
-1.33227e-10
1.28342e-10
-495.442
-4.53697
-0.0208824
-6.4266e-05
-1.48688e-07
-3.02869e-10
-1.29674e-10
1.31006e-10
1.30118e-10
-1.29674e-10
1.77636e-12
2.22045e-12
-2.66454e-12
3.9968e-12
-3.9968e-12
4.44089e-13
0
-2.22045e-12
5.77316e-12
-3.9968e-12
-7.54952e-12
-8.88178e-13
1.11022e-11
4.44089e-13
1.2923e-10
-9.76996e-12
-1.30118e-10
1.06581e-11
9.41469e-11
-1.33227e-12
-1.24345e-11
-1.55431e-11
1.77636e-12
-4.44089e-13
1.25677e-10
-1.11022e-11
-1.28342e-10
1.37668e-11
-1.77636e-12
-1.33227e-12
4.88498e-12
1.24345e-10
2.17604e-11
0
-4.75175e-11
2.66454e-12
2.4869e-11
-1.26121e-10
-6.21725e-12
0
1.40776e-10
0
-1.20792e-10
1.31006e-10
5.32907e-12
-1.35447e-10
-4.44089e-13
4.44089e-12
1.26121e-10
-8.88178e-13
-1.24345e-11
1.54099e-10
8.88178e-13
-1.32339e-10
1.24345e-10
-1.02141e-11
3.9968e-12
1.42109e-11
-1.34559e-10
-1.33227e-12
1.82077e-11
-1.31006e-10
1.77636e-12
0
4.88498e-12
-3.9968e-12
-4.44089e-13
2.70894e-11
1.26121e-10
-2.35367e-11
-5.32907e-12
-8.88178e-12
1.52323e-10
1.42109e-11
1.77636e-12
-2.4869e-11
-1.2923e-10
0
0
5.77316e-12
1.56319e-10
6.21725e-12
8.88178e-13
1.30562e-10
-1.77636e-12
-1.02141e-11
-1.26121e-10
-1.24789e-10
1.26121e-10
3.9968e-12
1.0969e-10
0
-8.88178e-13
0
4.44089e-13
-2.22045e-12
1.77636e-12
-9.72555e-11
-2.66454e-12
9.99201e-11
-7.54952e-12
-8.88178e-13
1.38112e-10
8.88178e-13
1.77636e-12
-2.39808e-11
-1.30118e-10
2.4869e-11
9.41469e-11
-1.33227e-12
-1.02141e-11
4.88498e-11
1.64313e-11
1.42109e-11
-7.99361e-12
8.88178e-12
-1.77636e-11
1.64313e-11
1.24345e-11
-8.83738e-11
-8.21565e-11
3.15303e-11
8.88178e-12
0
8.4821e-11
1.9984e-11
-2.35367e-11
-8.12683e-11
2.35367e-11
8.43769e-11
-3.9968e-11
3.90799e-11
-4.44089e-13
6.21725e-12
7.54952e-11
3.37508e-11
0
-2.44249e-11
-2.88658e-11
1.42109e-11
4.61853e-11
3.10862e-11
-3.01981e-11
-5.59552e-11
5.9508e-11
1.9984e-11
-2.35367e-11
2.75335e-11
2.30926e-11
-8.88178e-12
-3.68594e-11
0
3.41949e-11
2.30926e-11
1.46549e-11
-4.04121e-11
-2.30926e-11
-5.41789e-11
2.39808e-11
7.06102e-11
-1.82077e-11
3.15303e-11
5.28466e-11
4.88498e-12
4.08562e-11
-2.26485e-11
0
2.62013e-11
-4.70735e-11
-8.43769e-12
-1.06581e-11
-3.10862e-11
7.41629e-11
3.19744e-11
1.33227e-12
-7.01661e-11
-6.21725e-12
0
0
7.28306e-11
4.4853e-11
0
3.41949e-11
2.30926e-11
1.46549e-11
-4.04121e-11
-4.44089e-13
-5.28466e-11
0
9.37028e-11
6.66134e-12
1.38112e-10
-1.28786e-11
-1.30118e-10
1.02141e-11
-1.37668e-11
1.33671e-10
1.42109e-11
-5.32907e-12
1.2923e-10
-1.24345e-11
-1.55431e-11
1.77636e-12
1.33671e-10
-5.77316e-12
-7.54952e-12
1.77636e-12
-1.22125e-10
1.28342e-10
-3.9968e-12
-3.68594e-11
-2.30926e-11
-3.59712e-11
2.35367e-11
8.43769e-11
-4.04121e-11
-2.35367e-11
-5.28466e-11
2.30926e-11
5.24025e-11
5.37348e-11
-8.21565e-11
2.57572e-11
3.15303e-11
-3.90799e-11
-2.53131e-11
4.84057e-11
6.4837e-11
-4.84057e-11
1.02141e-11
4.66294e-11
4.88498e-11
-2.44249e-11
3.10862e-11
8.88178e-12
-2.22045e-12
0
-2.44249e-11
-5.59552e-11
-5.41789e-11
7.9492e-11
-6.35048e-11
-8.88178e-13
0
-6.08402e-11
6.08402e-11
8.88178e-13
-8.88178e-13
8.88178e-13
-6.17284e-11
-5.81757e-11
-4.13003e-11
7.68274e-11
0
-4.66294e-11
-4.35207e-11
5.4623e-11
0
-4.13003e-11
4.30767e-11
1.02141e-11
0
0
-2.17604e-11
1.15463e-11
6.08402e-11
4.44089e-13
-5.10703e-11
-2.17604e-11
5.37348e-11
6.75016e-11
-6.17284e-11
1.24345e-11
6.12843e-11
-6.52811e-11
-1.37668e-11
1.9984e-11
3.10862e-11
4.08562e-11
-5.32907e-12
1.86517e-11
0
-8.57092e-11
-2.17604e-11
0
2.75335e-11
3.90799e-11
4.17444e-11
-8.88178e-13
-3.10862e-12
-2.93099e-11
0
0
2.53131e-11
3.9968e-12
-2.93099e-11
0
0
2.53131e-11
3.9968e-12
4.88498e-12
-6.21725e-12
2.22045e-11
0
-2.22045e-11
1.32783e-10
-4.44089e-13
-1.26121e-10
-6.21725e-12
0
-4.04121e-11
-2.84217e-11
-4.44089e-13
5.77316e-12
8.43769e-12
3.28626e-11
8.88178e-11
-7.68274e-11
-1.77636e-12
6.61693e-11
-1.06581e-11
-1.42109e-11
3.37508e-11
3.10862e-11
8.88178e-12
-8.88178e-12
0
1.64313e-11
1.24345e-11
-2.53131e-11
1.15463e-11
-1.24345e-11
2.17604e-11
1.24345e-11
-5.15143e-11
1.46549e-11
0
2.66454e-12
6.21725e-11
-5.01821e-11
-8.03801e-11
0
7.59393e-11
6.83897e-11
-7.86038e-11
-7.54952e-11
0
9.76996e-12
8.79297e-11
-1.77636e-12
0
-1.15463e-11
6.75016e-11
5.9952e-11
3.10862e-12
4.88498e-12
-8.88178e-13
-1.28786e-11
1.77636e-11
1.46549e-11
-3.55271e-12
-4.44089e-13
-2.08722e-11
6.75016e-11
1.15463e-11
-5.81757e-11
4.44089e-13
6.79456e-11
0
-7.86038e-11
-2.30926e-11
7.54952e-12
0
-2.04281e-11
-1.82077e-11
-5.77316e-11
-1.9984e-11
0
1.9984e-11
7.81597e-11
2.70894e-11
-5.77316e-12
4.75175e-11
4.44089e-13
-1.68754e-11
3.19744e-11
-6.79456e-11
1.68754e-11
3.95239e-11
-3.9968e-11
3.9968e-12
-8.88178e-13
-1.02141e-11
2.53131e-11
1.11022e-11
1.2701e-10
-4.44089e-13
-1.2701e-10
1.28342e-10
-2.4869e-11
-4.44089e-12
7.54952e-12
2.88658e-11
0
1.25233e-10
1.23013e-10
-1.25233e-10
-1.23013e-10
1.26121e-10
-8.88178e-13
7.41629e-11
2.30926e-11
-6.43929e-11
0
6.57252e-11
-3.24185e-11
0
-4.30767e-11
-4.21885e-11
3.4639e-11
9.63674e-11
3.4639e-11
-1.73195e-11
-3.37508e-11
-6.17284e-11
1.64313e-11
-1.02141e-11
4.44089e-11
1.11022e-11
-6.17284e-11
-4.30767e-11
2.04281e-11
8.12683e-11
-6.75016e-11
-8.30447e-11
-1.86517e-11
0
4.35207e-11
6.21725e-12
-4.52971e-11
7.99361e-11
0
0
0
-1.19904e-11
1.19904e-11
-6.79456e-11
0
6.79456e-11
-1.19904e-11
-3.90799e-11
5.06262e-11
6.43929e-11
0
-2.84217e-11
-3.9968e-12
-2.53131e-11
-5.72875e-11
5.01821e-11
1.15463e-11
1.86517e-11
0
0
-4.92939e-11
-6.79456e-11
6.83897e-11
4.88498e-11
0
-4.88498e-11
-4.66294e-11
1.82077e-11
0
6.79456e-11
6.12843e-11
-7.19425e-11
-1.37668e-11
7.63833e-11
2.66454e-12
-1.46549e-11
2.22045e-11
-2.22045e-11
4.44089e-13
-4.52971e-11
0
7.90479e-11
-4.70735e-11
1.33227e-11
0
-4.44089e-13
1.9984e-11
-4.88498e-12
-1.95399e-11
0
0
1.33671e-10
2.66454e-12
-1.16795e-10
-8.88178e-13
-1.86517e-11
1.33227e-12
-1.24345e-11
1.54099e-10
-1.33227e-11
-1.32339e-10
1.42553e-10
-1.02141e-11
0
1.42109e-11
-1.34559e-10
1.28786e-10
5.24025e-11
1.24345e-11
-3.15303e-11
0
3.24185e-11
-5.9508e-11
0
5.86198e-11
-2.39808e-11
1.77636e-12
9.32587e-12
0
0
-6.26166e-11
7.28306e-11
6.21725e-12
1.19904e-11
-5.32907e-12
-3.9968e-12
4.35207e-11
-2.66454e-12
-4.21885e-11
-7.9492e-11
-2.04281e-11
8.79297e-11
3.77476e-11
-1.77636e-11
3.41949e-11
-3.64153e-11
-3.55271e-12
7.90479e-11
-1.77636e-12
2.66454e-12
-3.5083e-11
-6.4837e-11
2.75335e-11
2.08722e-11
0
0
1.11022e-11
-4.88498e-12
8.79297e-11
2.88658e-11
-4.35207e-11
-5.10703e-11
-4.35207e-11
-3.15303e-11
5.28466e-11
4.44089e-11
2.84217e-11
1.90958e-11
3.55271e-11
4.44089e-12
1.42109e-11
-7.23865e-11
-3.9968e-12
2.22045e-11
-8.88178e-13
2.79776e-11
-3.9968e-12
5.28466e-11
1.42109e-11
-2.84217e-11
-1.37668e-11
-5.01821e-11
7.63833e-11
7.63833e-11
-4.44089e-12
-2.22045e-12
4.44089e-13
6.79456e-11
-5.77316e-12
-2.44249e-11
-7.10543e-12
-4.35207e-11
4.66294e-11
3.41949e-11
0
-1.24345e-11
-3.9968e-12
6.66134e-12
1.37224e-10
-1.82077e-11
4.44089e-13
-7.10543e-12
-1.58096e-10
1.68754e-11
0
-1.68754e-11
2.08722e-11
2.84217e-11
6.66134e-12
1.33227e-12
1.3145e-10
1.24789e-10
-1.44329e-10
-1.26121e-10
1.42109e-11
-4.44089e-12
1.30118e-10
7.9492e-11
-2.30926e-11
-1.77636e-11
2.30926e-11
3.24185e-11
-5.9508e-11
-2.35367e-11
5.81757e-11
0
-3.9968e-11
1.86517e-11
-4.26326e-11
-2.08722e-11
5.01821e-11
0
4.44089e-13
1.11022e-11
-4.44089e-12
1.42109e-11
-6.75016e-11
-7.14984e-11
5.72875e-11
4.66294e-11
1.24345e-11
1.15463e-11
-2.39808e-11
-6.83897e-11
-4.57412e-11
0
5.77316e-11
-3.86358e-11
5.24025e-11
6.21725e-12
-1.82077e-11
5.81757e-11
3.41949e-11
-2.57572e-11
-5.72875e-11
-2.79776e-11
-1.02141e-11
0
-5.77316e-12
8.43769e-12
-1.86517e-11
-5.32907e-11
1.64313e-11
7.99361e-12
8.43769e-12
8.57092e-11
3.68594e-11
-2.13163e-11
-1.11022e-11
8.88178e-12
4.4853e-11
-5.37348e-11
-7.99361e-12
1.90958e-11
-8.88178e-13
2.22045e-11
4.4853e-11
-1.46549e-11
1.33227e-11
8.88178e-13
-1.42109e-11
-3.86358e-11
7.19425e-11
7.63833e-11
-3.9968e-12
-2.22045e-12
4.44089e-12
4.79616e-11
-4.04121e-11
-3.06422e-11
-1.24345e-11
2.44249e-11
2.44249e-11
-6.79456e-11
-3.10862e-12
4.92939e-11
-6.12843e-11
-8.88178e-13
8.88178e-12
0
-2.53131e-11
-2.53131e-11
2.4869e-11
1.68754e-11
0
1.37224e-10
-3.9968e-12
-1.36779e-10
1.23901e-10
-2.17604e-11
-1.19904e-10
1.54099e-10
-5.77316e-12
-1.24789e-10
0
-2.22045e-12
1.26121e-10
-6.21725e-12
7.99361e-12
-8.26006e-11
-1.77636e-12
8.83738e-11
-1.19904e-11
0
-4.26326e-11
6.21725e-12
1.28786e-11
-1.82077e-11
4.44089e-13
6.12843e-11
0
3.4639e-11
1.5099e-11
-6.21725e-11
-4.44089e-12
4.13003e-11
8.88178e-13
4.52971e-11
7.54952e-12
0
0
-1.82077e-11
-7.81597e-11
4.44089e-13
-4.44089e-13
4.84057e-11
3.90799e-11
2.79776e-11
1.37668e-11
-6.70575e-11
-1.42109e-11
7.59393e-11
3.86358e-11
1.86517e-11
-1.33227e-11
-6.21725e-12
4.70735e-11
5.32907e-11
-2.08722e-11
-6.21725e-12
2.04281e-11
-5.15143e-11
-6.12843e-11
0
5.10703e-11
-2.62013e-11
-7.59393e-11
0
1.42109e-11
0
-1.42109e-11
-4.88498e-12
6.4837e-11
5.9508e-11
1.55431e-11
-1.90958e-11
-7.10543e-12
3.06422e-11
6.83897e-11
-4.66294e-11
-2.04281e-11
6.4837e-11
-4.44089e-11
1.42109e-11
0
-3.4639e-11
1.64313e-11
6.75016e-11
-2.04281e-11
-2.22045e-11
2.04281e-11
4.57412e-11
-4.26326e-11
-5.63993e-11
-8.43769e-12
-2.62013e-11
3.4639e-11
-4.44089e-12
1.43885e-10
0
-3.68594e-11
1.5854e-10
-9.76996e-11
0
-3.10862e-12
0
-2.22045e-11
1.56319e-10
6.21725e-12
-1.3145e-10
1.31006e-10
1.30118e-10
-1.48326e-10
-1.26121e-10
1.37668e-11
-4.44089e-12
3.10862e-12
9.23706e-11
-4.44089e-13
-6.43929e-11
1.77636e-11
6.61693e-11
-2.70894e-11
-2.30926e-11
-4.39648e-11
-1.73195e-11
7.54952e-11
8.88178e-12
8.88178e-13
7.68274e-11
-8.88178e-13
-8.57092e-11
-2.4869e-11
7.54952e-11
-5.32907e-12
-3.64153e-11
9.32587e-12
-5.24025e-11
-1.02141e-11
9.23706e-11
8.03801e-11
-1.64313e-11
4.44089e-12
-6.83897e-11
-2.4869e-11
-4.44089e-13
8.88178e-12
7.90479e-11
-9.76996e-12
3.10862e-12
8.17124e-11
-1.73195e-11
-1.11022e-11
3.10862e-12
0
0
-6.08402e-11
1.64313e-11
-5.77316e-12
-4.70735e-11
5.77316e-12
5.28466e-11
8.88178e-12
-5.90639e-11
1.28786e-11
7.41629e-11
1.5099e-11
1.86517e-11
7.06102e-11
4.44089e-12
-7.06102e-11
1.77636e-12
8.57092e-11
-9.19265e-11
-4.44089e-13
4.52971e-11
-6.75016e-11
-9.23706e-11
1.42109e-11
0
5.32907e-12
1.42109e-11
1.95399e-11
7.68274e-11
-8.88178e-12
-4.35207e-11
1.64313e-11
8.65974e-11
5.72875e-11
4.88498e-12
-5.77316e-11
-9.10383e-11
6.83897e-11
5.24025e-11
4.44089e-12
-5.24025e-11
-8.88178e-12
6.66134e-12
2.79776e-11
-1.82077e-11
2.22045e-12
1.44773e-10
-3.01981e-11
-1.56319e-10
8.88178e-13
2.26485e-11
3.9968e-12
-1.9984e-11
1.11022e-10
3.06422e-11
0
9.76996e-11
-2.22045e-12
2.22045e-12
-9.72555e-11
-2.66454e-12
9.99201e-11
1.30118e-10
-1.3145e-10
-1.37224e-10
1.26121e-10
1.40776e-10
-1.24789e-10
-1.3145e-10
-2.4869e-11
0
1.68754e-11
1.44773e-10
0
-1.45661e-10
0
1.57208e-10
1.46994e-10
-1.51879e-10
-6.21725e-12
-4.44089e-13
-1.40776e-10
1.77636e-12
-1.02141e-11
-9.76996e-12
-2.53131e-11
1.15463e-11
1.37668e-11
-2.57572e-11
1.38112e-10
2.13163e-11
-1.51879e-10
1.45217e-10
2.62013e-11
6.21725e-12
-3.9968e-12
-1.2923e-10
1.23901e-10
-2.30926e-11
4.44089e-13
0
-1.15463e-10
-4.44089e-13
1.37224e-10
1.33227e-12
0
1.31894e-10
-1.33227e-12
-1.28786e-10
-1.31894e-10
-2.30926e-11
-3.55271e-12
1.56319e-10
2.79776e-11
4.44089e-13
-2.35367e-11
0
1.82077e-11
-1.56319e-10
1.33227e-10
1.58096e-10
-1.34559e-10
0
1.43441e-10
0
0
1.17684e-10
-1.2923e-10
-9.28146e-11
-1.33227e-12
-2.44249e-11
1.90958e-11
-2.26485e-11
2.22045e-12
0
-1.33227e-10
5.19584e-11
-2.57572e-11
-2.17604e-11
0
-2.53131e-11
1.55875e-10
-1.77636e-12
-8.88178e-13
-1.77636e-12
1.29674e-10
-1.27454e-10
-1.2923e-10
1.33227e-12
1.28342e-10
1.2923e-10
8.88178e-13
-5.77316e-12
2.22045e-12
0
-2.22045e-12
1.77636e-12
0
4.44089e-13
0
-1.28786e-10
-1.27454e-10
-9.37028e-11
-5.32907e-12
0
5.32907e-12
-3.55271e-12
4.44089e-13
8.88178e-13
0
1.28342e-10
1.26121e-10
6.21725e-12
1.33227e-12
-1.77636e-12
-1.33227e-12
0
0
-1.77636e-11
0
1.44329e-10
1.26121e-10
6.21725e-12
-5.77316e-12
-2.4869e-11
-1.9984e-11
1.54099e-10
-8.88178e-13
8.88178e-13
4.44089e-13
4.44089e-13
1.55875e-10
4.88498e-12
1.33227e-12
0
1.30118e-10
0
0
-1.39444e-10
0
1.40332e-10
1.33227e-12
-2.39808e-11
2.39808e-11
1.59428e-10
1.07914e-10
0
0
-1.95399e-11
0
2.04281e-11
1.33227e-12
-1.28786e-10
-1.28786e-11
0
1.02141e-11
1.33671e-10
0
-8.88178e-13
-4.44089e-12
8.88178e-13
1.37224e-10
-4.44089e-13
1.86517e-11
-2.22045e-12
1.17684e-10
-1.55431e-11
-1.2168e-10
1.95399e-11
-2.22045e-12
1.29674e-10
1.35003e-10
-1.54987e-10
-9.32587e-12
1.59428e-10
1.4122e-10
0
0
-4.44089e-13
0
1.33227e-12
1.33227e-12
-3.9968e-12
-4.44089e-13
6.21725e-12
4.44089e-13
0
0
-1.32339e-10
0
-8.88178e-13
-1.33227e-10
-9.37028e-11
-5.32907e-12
0
5.32907e-12
-3.55271e-12
4.44089e-13
8.88178e-13
0
1.28342e-10
1.26121e-10
-1.15463e-11
3.9968e-11
-8.88178e-13
2.35367e-11
-1.77636e-11
0
-1.77636e-12
-5.24025e-11
1.73639e-10
2.0739e-10
-9.41469e-11
-3.24185e-11
5.28466e-11
-9.32587e-12
4.17444e-11
0
-6.70575e-11
0
6.52811e-11
4.04121e-11
2.88658e-11
-2.26485e-11
0
2.26485e-11
0
6.21725e-12
-3.06422e-11
0
3.19744e-11
-4.88498e-12
-2.9754e-11
9.32587e-12
-1.19904e-11
-9.32587e-12
4.17444e-11
0
-5.50671e-11
0
4.52971e-11
3.19744e-11
-2.35367e-11
1.19904e-11
-4.44089e-13
-1.15463e-11
2.35367e-11
0
-5.77316e-12
2.35367e-11
1.38112e-10
1.32339e-10
2.04281e-11
-4.21885e-11
3.55271e-12
4.17444e-11
2.35367e-11
0
0
0
1.28786e-10
1.53211e-10
-1.77636e-11
-2.88658e-11
2.30926e-11
3.33067e-11
-5.9952e-11
-4.44089e-13
2.70894e-11
8.88178e-13
1.59428e-10
1.2701e-10
-2.30926e-11
-5.9952e-11
0
3.64153e-11
2.35367e-11
0
4.44089e-13
0
4.44089e-13
2.44249e-11
-1.3145e-10
-1.42997e-10
-1.33227e-12
5.77316e-12
0
0
-2.22045e-11
0
1.60316e-10
1.38112e-10
-1.54099e-10
3.55271e-12
2.62013e-11
1.29674e-10
0
-1.33671e-10
-1.55431e-11
0
1.44773e-10
1.28342e-10
0
-3.81917e-11
-4.13003e-11
7.9492e-11
0
-4.17444e-11
3.59712e-11
0
1.38112e-10
1.74083e-10
4.44089e-13
3.9968e-12
5.28466e-11
-5.41789e-11
-6.43929e-11
0
6.57252e-11
0
-6.21725e-12
4.88498e-11
5.68434e-11
3.9968e-11
-6.35048e-11
2.35367e-11
4.4853e-11
-6.30607e-11
-1.33227e-12
1.02141e-11
1.62981e-10
1.95843e-10
0
7.63833e-11
0
-7.63833e-11
0
0
7.63833e-11
0
-2.35367e-11
5.37348e-11
0
4.21885e-11
0
-4.21885e-11
0
0
-1.77636e-11
4.17444e-11
5.72875e-11
-8.88178e-13
4.44089e-13
1.37668e-11
6.39488e-11
-7.77156e-11
-4.26326e-11
6.43929e-11
5.59552e-11
0
-2.4869e-11
-1.06581e-11
-2.35367e-11
-7.72715e-11
4.21885e-11
4.26326e-11
-7.54952e-12
4.21885e-11
8.88178e-13
-4.70735e-11
-6.21725e-12
3.5083e-11
-2.17604e-11
1.19904e-11
6.35048e-11
-7.54952e-11
-4.26326e-11
6.43929e-11
5.01821e-11
-4.26326e-11
-1.90958e-11
3.19744e-11
0
1.50102e-10
-2.53131e-11
-1.24789e-10
0
-2.53131e-11
1.50102e-10
0
5.32907e-12
1.55875e-10
-1.95399e-11
-4.88498e-12
2.4869e-11
-1.95399e-11
-8.88178e-13
3.64153e-11
1.29674e-10
-1.11022e-11
0
1.2923e-10
-1.82077e-11
-2.26485e-11
0
2.26485e-11
0
6.21725e-12
1.02141e-11
0
1.06581e-11
1.5099e-11
-7.10543e-12
2.39808e-11
0
-1.86517e-11
-2.26485e-11
0
4.08562e-11
0
1.31006e-10
1.49658e-10
-4.35207e-11
0
3.55271e-11
7.41629e-11
-7.99361e-12
0
-3.55271e-12
0
1.48326e-10
1.37224e-10
-1.9984e-11
8.65974e-11
-6.83897e-11
-1.82077e-11
6.79456e-11
-6.83897e-11
1.46549e-11
8.88178e-13
6.21725e-12
8.83738e-11
-2.22045e-12
-6.52811e-11
-6.83897e-11
4.70735e-11
3.4639e-11
-2.30926e-11
-1.33227e-12
-3.41949e-11
4.44089e-11
7.81597e-11
-4.44089e-12
4.70735e-11
2.35367e-11
1.5099e-11
-8.57092e-11
2.26485e-11
4.52971e-11
0
4.21885e-11
1.33227e-12
-2.66454e-11
-6.75016e-11
8.79297e-11
3.41949e-11
-8.83738e-11
-1.82077e-11
8.65974e-11
5.19584e-11
2.22045e-12
0
3.9968e-11
-2.84217e-11
-6.83897e-11
4.70735e-11
-1.02141e-11
-2.26485e-11
4.30767e-11
-3.41949e-11
4.44089e-11
7.81597e-11
-1.27898e-10
1.49658e-10
-1.77636e-12
-1.24345e-10
0
-1.77636e-12
1.28342e-10
0
2.22045e-12
1.30562e-10
-1.24789e-10
1.33227e-12
-1.77636e-12
-1.33227e-12
0
0
1.77636e-12
0
1.24789e-10
1.26121e-10
4.17444e-11
-3.81917e-11
-4.13003e-11
7.9492e-11
0
-4.17444e-11
-2.53131e-11
3.81917e-11
1.98952e-10
1.36335e-10
0
7.86038e-11
6.75016e-11
-7.81597e-11
-1.5099e-11
-4.44089e-13
2.62013e-11
0
-2.57572e-11
5.37348e-11
7.9492e-11
3.9968e-11
-2.35367e-11
4.66294e-11
-8.43769e-12
-2.30926e-11
-1.11022e-11
-5.24025e-11
1.62981e-10
1.95843e-10
-4.88498e-11
-1.19904e-11
0
-3.77476e-11
4.9738e-11
-8.88178e-13
-1.11022e-11
0
1.5099e-11
5.37348e-11
-7.54952e-12
-2.57572e-11
-4.26326e-11
2.57572e-11
0
0
2.13163e-11
4.44089e-13
2.62013e-11
4.88498e-11
6.43929e-11
4.79616e-11
-4.17444e-11
-4.88498e-11
0
0
4.79616e-11
8.88178e-13
1.86517e-11
6.79456e-11
1.42109e-11
-7.54952e-12
-4.30767e-11
1.06581e-11
3.9968e-11
-4.35207e-11
-3.86358e-11
-4.44089e-13
3.01981e-11
3.01981e-11
-9.32587e-11
3.01981e-11
6.70575e-11
-9.37028e-11
2.4869e-11
6.70575e-11
-1.77636e-12
0
-2.30926e-11
-8.88178e-13
1.36335e-10
1.28786e-10
-1.32339e-10
3.55271e-12
0
-1.32339e-10
1.28786e-10
0
4.44089e-12
1.34559e-10
-2.30926e-11
-1.07025e-10
2.57572e-11
1.0747e-10
0
-1.33671e-10
4.44089e-13
0
1.34115e-10
1.35447e-10
-7.10543e-11
-1.46549e-11
9.41469e-11
-2.66454e-11
-2.35367e-11
4.17444e-11
1.77636e-11
0
-6.66134e-12
-1.15463e-11
0
4.17444e-11
3.55271e-12
-3.9968e-12
-4.13003e-11
3.9968e-12
4.13003e-11
4.44089e-13
1.31006e-10
1.31006e-10
-2.66454e-11
1.33227e-11
1.02141e-11
7.10543e-12
5.81757e-11
-2.57572e-11
6.21725e-12
-5.19584e-11
1.42553e-10
2.0739e-10
0
0
2.53131e-11
-5.10703e-11
1.82077e-11
1.28786e-11
-8.17124e-11
0
7.63833e-11
2.4869e-11
3.73035e-11
-5.55112e-11
2.66454e-12
5.50671e-11
-7.77156e-11
0
7.9492e-11
0
1.3145e-10
1.35003e-10
2.26485e-11
-2.04281e-11
3.10862e-12
2.75335e-11
-1.64313e-11
0
7.54952e-12
0
1.42109e-10
1.35003e-10
-4.88498e-11
-3.33067e-11
3.59712e-11
-1.28786e-11
1.82077e-11
2.26485e-11
-8.74856e-11
1.33227e-11
8.92619e-11
2.04281e-11
4.9738e-11
-4.75175e-11
2.66454e-12
5.50671e-11
-1.64313e-11
0
-2.44249e-11
0
1.74083e-10
1.35003e-10
3.64153e-11
3.55271e-12
1.04361e-10
-3.55271e-12
-1.15907e-10
1.95399e-11
4.44089e-13
0
1.2923e-10
1.18128e-10
-2.39808e-11
-1.40776e-10
1.59428e-10
1.4122e-10
0
0
-4.44089e-13
0
1.33227e-12
1.33227e-12
2.35367e-11
3.81917e-11
-4.17444e-11
3.55271e-12
0
-4.17444e-11
4.21885e-11
3.77476e-11
1.19016e-10
1.24789e-10
0
5.63993e-11
-7.99361e-12
1.5099e-11
-6.39488e-11
-7.54952e-12
4.30767e-11
0
1.63869e-10