/*--------------------------------*- C++ -*----------------------------------*\
  =========                 |
  \\      /  F ield         | OpenFOAM: The Open Source CFD Toolbox
   \\    /   O peration     | Website:  https://openfoam.org
    \\  /    A nd           | Version:  10
     \\/     M anipulation  |
\*---------------------------------------------------------------------------*/
FoamFile
{
    format      ascii;
    class       volScalarField;
    location    "2.3";
    object      gradTy;
}
// * * * * * * * * * * * * * * * * * * * * * * * * * * * * * * * * * * * * * //

dimensions      [0 -1 0 1 0 0 0];

internalField   nonuniform List<scalar> 
3000
(
-1.75504e-09
-3.06422e-11
3.4639e-11
-2.26485e-11
-2.22045e-11
-2.53131e-11
-2.84217e-11
-1.28786e-10
-2.53131e-11
-1.33671e-10
-1.71463e-09
-3.15303e-11
2.4869e-11
1.77636e-11
-3.5083e-11
0
-5.01821e-11
-1.2923e-10
1.26565e-10
-1.1724e-10
1.33227e-11
1.33227e-12
-2.35367e-11
8.88178e-12
6.21725e-11
1.53655e-10
4.44089e-13
1.28342e-10
1.68754e-11
0
-4.66294e-11
1.02141e-11
-4.79616e-11
-4.13003e-11
-2.22045e-12
-2.9754e-11
2.30926e-11
1.28786e-10
0
-3.73035e-11
-2.79776e-11
-1.24345e-11
1.46549e-11
-1.02141e-11
-7.72715e-11
-1.28786e-10
-2.17604e-11
-1.54099e-10
1.35003e-10
1.55431e-11
0
-9.76996e-12
-5.32907e-12
-7.99361e-12
2.08722e-11
1.56319e-10
1.22569e-10
4.44089e-13
-1.15463e-11
0
4.70735e-11
7.86038e-11
4.44089e-12
3.68594e-11
3.55271e-11
8.88178e-13
1.02141e-11
1.53655e-10
-1.26121e-10
-3.06422e-11
-8.88178e-12
2.04281e-11
8.52651e-11
3.86358e-11
6.03961e-11
0
-1.22569e-10
-1.28786e-10
0
-3.9968e-12
-8.92619e-11
1.74749e-09
-1.59872e-11
3.68594e-11
-8.88178e-13
1.27898e-10
1.47882e-10
-6.21725e-12
-1.33227e-12
3.90799e-11
-4.21885e-11
1.79501e-09
-4.26326e-11
4.21885e-11
-4.66294e-11
2.22045e-12
1.35891e-10
1.2168e-10
-1.16351e-10
5.01821e-11
-1.7919e-09
2.53131e-11
-2.44249e-11
-5.59552e-11
-6.66134e-11
-5.32907e-11
-4.88498e-11
-1.50546e-10
-7.4607e-11
-2.66454e-12
-1.76081e-09
-3.55271e-11
1.11022e-11
-5.68434e-11
-9.19265e-11
-3.55271e-12
-8.83738e-11
-1.5099e-10
0
-1.02141e-11
2.22045e-12
5.32907e-12
2.08722e-11
9.32587e-12
6.39488e-11
7.14984e-11
1.33227e-11
-4.88498e-12
3.4639e-11
-5.01821e-11
-4.08562e-11
8.43769e-12
-4.61853e-11
0
0
-6.75016e-11
4.4853e-11
1.24345e-11
-4.75175e-11
-6.43929e-11
-1.86517e-11
-6.52811e-11
1.37668e-11
2.30926e-11
-8.9706e-11
-2.26485e-11
-5.24025e-11
5.32907e-12
3.95239e-11
4.21885e-11
0
0
1.77636e-12
9.32587e-12
6.83897e-11
4.44089e-13
4.04121e-11
0
4.17444e-11
4.44089e-13
4.08562e-11
4.08562e-11
6.21725e-12
-2.26485e-11
7.9492e-11
7.99361e-12
2.88658e-11
1.24345e-11
-6.4837e-11
-5.37348e-11
-3.10862e-12
-2.22045e-12
7.28306e-11
0
2.26485e-11
9.32587e-11
0
-1.24345e-11
-5.72875e-11
-1.82077e-11
1.77591e-09
1.83942e-09
-1.77636e-11
-2.22045e-12
-3.10862e-12
3.10862e-11
3.86358e-11
1.36779e-10
3.86358e-11
5.9508e-11
1.81188e-09
1.8745e-09
-4.04121e-11
-2.22045e-12
-1.37668e-11
1.55431e-11
-1.90958e-11
1.49658e-10
3.86358e-11
8.88178e-11
-1.84297e-09
-2.39808e-11
-1.68754e-11
-2.66454e-11
-7.23865e-11
-2.9754e-11
-2.22045e-12
-8.43769e-12
-1.30562e-10
-2.53131e-11
-1.82387e-09
9.32587e-12
1.19904e-11
-8.61533e-11
-4.44089e-12
-4.44089e-12
-4.88498e-11
-7.10543e-12
-2.23377e-10
-1.0747e-10
4.04121e-11
6.12843e-11
-3.4639e-11
-3.24185e-11
2.62013e-11
-6.70575e-11
-2.4869e-11
-1.24345e-11
-9.28146e-11
-4.26326e-11
-4.84057e-11
-5.01821e-11
-3.5083e-11
0
-6.79456e-11
-9.28146e-11
-1.82077e-11
-7.19425e-11
0
0
-2.35367e-11
-2.75335e-11
6.30607e-11
-3.73035e-11
6.17284e-11
0
-2.17604e-11
1.42109e-11
0
2.70894e-11
0
3.86358e-11
-2.88658e-11
0
8.43769e-12
0
1.82077e-11
2.13163e-11
1.82077e-11
1.82077e-11
1.02141e-11
-3.24185e-11
-4.21885e-11
6.03961e-11
-8.88178e-12
9.4591e-11
0
-1.42109e-11
1.82077e-11
-6.70575e-11
8.88178e-11
4.9738e-11
-8.43769e-12
3.64153e-11
-8.43769e-12
-4.44089e-13
0
-2.13163e-11
-1.82077e-11
4.9738e-11
1.80922e-09
1.80878e-09
-3.9968e-12
-1.55431e-11
-8.88178e-12
-2.70894e-11
4.88498e-11
-3.9968e-12
7.90479e-11
9.63674e-11
1.77858e-09
1.73905e-09
2.62013e-11
-2.22045e-12
7.01661e-11
6.70575e-11
4.88498e-11
5.28466e-11
9.68114e-11
2.9754e-11
-1.81455e-09
-2.57572e-11
-1.55431e-11
-1.55431e-11
-6.12843e-11
-4.04121e-11
-1.77636e-11
-1.54543e-10
-1.82077e-11
-5.28466e-11
-1.77414e-09
-2.57572e-11
-3.68594e-11
-2.53131e-11
-8.30447e-11
-9.23706e-11
-7.01661e-11
-1.97176e-10
-2.08722e-11
-5.28466e-11
1.64313e-11
1.19904e-11
8.88178e-13
3.41949e-11
0
1.82077e-11
-1.82077e-11
2.53131e-11
-1.82077e-11
1.33227e-11
-3.86358e-11
0
9.32587e-12
3.77476e-11
8.12683e-11
6.75016e-11
2.13163e-11
-2.04281e-11
2.26485e-11
4.9738e-11
-1.15463e-11
-1.19904e-11
-3.10862e-11
-3.37508e-11
4.21885e-11
2.17604e-11
3.01981e-11
-1.95399e-11
1.19904e-11
-5.28466e-11
-1.68754e-11
4.61853e-11
3.9968e-11
-3.81917e-11
0
1.5099e-11
0
-8.88178e-13
0
4.44089e-13
3.19744e-11
1.46549e-11
5.01821e-11
4.44089e-11
-5.77316e-11
-8.43769e-11
-6.21725e-12
0
1.15463e-11
7.59393e-11
1.64313e-11
8.88178e-12
-5.86198e-11
4.52971e-11
-1.73195e-11
-1.5099e-11
-4.44089e-13
8.08242e-11
-7.23865e-11
-7.23865e-11
1.77369e-09
1.83231e-09
4.44089e-11
-2.84217e-11
7.72715e-11
8.03801e-11
1.50102e-10
-4.44089e-12
1.68754e-11
1.68754e-11
1.80655e-09
1.79368e-09
9.4591e-11
-2.04281e-11
1.90958e-11
2.08722e-11
1.85185e-10
-1.64313e-11
7.4607e-11
7.4607e-11
-1.78435e-09
-2.66454e-11
-8.43769e-12
-2.17604e-11
-7.23865e-11
-6.70575e-11
-3.01981e-11
-1.49658e-10
-1.77636e-10
-5.28466e-11
-1.82654e-09
-5.19584e-11
-7.54952e-12
-7.32747e-11
-7.19425e-11
2.57572e-11
-7.68274e-11
-2.0739e-10
-2.24265e-10
-7.19425e-11
2.93099e-11
5.28466e-11
1.06581e-11
-3.73035e-11
2.57572e-11
0
2.53131e-11
-4.70735e-11
-4.4853e-11
3.41949e-11
-3.10862e-12
0
0
4.57412e-11
0
-9.28146e-11
-1.82077e-11
4.92939e-11
0
4.44089e-13
-7.10543e-11
-7.99361e-11
-1.06581e-11
9.76996e-12
-2.57572e-11
0
-7.19425e-11
5.32907e-11
0
1.42109e-11
2.62013e-11
3.33067e-11
0
-4.61853e-11
0
0
0
0
0
6.79456e-11
2.66454e-11
7.28306e-11
5.9508e-11
-3.86358e-11
0
3.9968e-11
4.88498e-11
-6.75016e-11
6.70575e-11
-6.70575e-11
6.57252e-11
5.4623e-11
0
1.42109e-11
0
0
1.90958e-11
1.86517e-11
0
0
1.78524e-09
1.75637e-09
-3.15303e-11
8.52651e-11
7.19425e-11
2.70894e-11
-8.88178e-13
7.41629e-11
0
9.63674e-11
1.72351e-09
1.73905e-09
2.62013e-11
5.63993e-11
7.23865e-11
6.70575e-11
4.88498e-11
2.22045e-12
6.70575e-11
2.9754e-11
-1.79412e-09
-2.44249e-11
-1.68754e-11
-1.86517e-11
-7.23865e-11
-2.9754e-11
-2.22489e-10
-1.77636e-12
-1.30118e-10
-6.70575e-11
-1.76836e-09
9.76996e-12
1.19904e-11
-9.32587e-11
-7.19425e-11
-9.63674e-11
-2.23377e-10
-6.21725e-12
-2.23377e-10
-1.07914e-10
1.11022e-11
6.12843e-11
-4.44089e-11
-2.84217e-11
8.88178e-12
2.4869e-11
8.17124e-11
0
-9.23706e-11
4.21885e-11
-4.88498e-11
-5.01821e-11
8.88178e-13
4.70735e-11
0
0
6.4837e-11
1.90958e-11
6.39488e-11
0
1.33227e-11
-2.75335e-11
0
3.77476e-11
-8.88178e-12
-9.28146e-11
-6.39488e-11
-4.88498e-12
0
-1.42109e-11
0
0
-6.61693e-11
-2.22045e-11
8.88178e-12
8.26006e-11
-6.4837e-11
-5.06262e-11
3.55271e-12
6.70575e-11
-4.30767e-11
3.9968e-12
3.01981e-11
-2.44249e-11
2.57572e-11
7.06102e-11
3.41949e-11
-5.63993e-11
5.24025e-11
-2.75335e-11
8.92619e-11
8.79297e-11
-6.66134e-12
-2.4869e-11
-8.88178e-12
-1.5099e-11
4.04121e-11
0
1.46549e-11
-4.92939e-11
1.86207e-09
1.78613e-09
4.44089e-11
-3.77476e-11
4.39648e-11
-3.9968e-12
1.7053e-10
7.4607e-11
1.70974e-10
5.01821e-11
1.77858e-09
1.75193e-09
7.37188e-11
2.22045e-11
7.01661e-11
0
1.83853e-10
4.84057e-11
1.4122e-10
7.14984e-11
-1.79634e-09
6.66134e-12
-8.43769e-12
3.4639e-11
-6.12843e-11
-6.79456e-11
-1.26565e-10
-2.08722e-11
-3.9968e-12
-6.70575e-11
-1.78879e-09
-1.15463e-11
-3.9968e-11
-2.4869e-11
-8.61533e-11
-4.88498e-11
-1.94067e-10
-7.90479e-11
-7.19425e-11
8.88178e-13
-1.42109e-11
-1.42109e-11
-2.9754e-11
-4.52971e-11
1.77636e-12
8.26006e-11
-4.61853e-11
-4.70735e-11
4.44089e-12
8.9706e-11
4.13003e-11
3.86358e-11
4.44089e-13
4.57412e-11
0
-4.44089e-13
-1.82077e-11
4.92939e-11
-4.44089e-13
0
6.17284e-11
-4.39648e-11
-9.32587e-12
2.62013e-11
-2.57572e-11
-6.39488e-11
2.79776e-11
2.39808e-11
-5.01821e-11
-4.4853e-11
-9.76996e-12
-7.54952e-12
0
-4.44089e-11
0
4.9738e-11
-8.88178e-13
-4.88498e-11
-1.82077e-11
0
-1.15463e-11
7.06102e-11
5.86198e-11
-3.10862e-12
8.88178e-12
2.08722e-11
-4.88498e-11
-3.86358e-11
2.79776e-11
2.22045e-11
7.54952e-12
-3.06422e-11
-4.44089e-13
-2.22045e-12
0
4.44089e-13
6.79456e-11
4.61853e-11
1.82077e-11
-2.22045e-11
1.78613e-09
1.79545e-09
-2.62013e-11
3.37508e-11
6.30607e-11
2.66454e-11
4.88498e-11
7.41629e-11
2.93099e-11
2.93099e-11
1.7768e-09
1.82476e-09
2.39808e-11
7.06102e-11
7.23865e-11
0
-8.88178e-13
2.39808e-11
7.86038e-11
5.19584e-11
-1.77236e-09
-2.9754e-11
-5.15143e-11
-4.13003e-11
-6.92779e-11
4.44089e-12
-1.37224e-10
-1.37224e-10
-2.08722e-11
-1.37224e-10
-1.80744e-09
-6.88338e-11
2.22045e-12
-2.88658e-11
-6.75016e-11
1.82077e-11
-1.85629e-10
-1.49658e-10
-7.90479e-11
-2.0739e-10
-2.4869e-11
-7.54952e-12
3.59712e-11
4.39648e-11
-6.61693e-11
-6.79456e-11
-8.03801e-11
-7.37188e-11
-4.70735e-11
-8.03801e-11
1.77636e-12
3.86358e-11
-9.32587e-12
-4.39648e-11
-4.88498e-12
-7.54952e-12
-2.17604e-11
-6.17284e-11
6.79456e-11
2.17604e-11
-6.21725e-12
7.54952e-12
3.33067e-11
-8.61533e-11
7.59393e-11
6.26166e-11
3.19744e-11
0
1.15463e-11
3.19744e-11
-4.26326e-11
-2.22045e-12
-4.92939e-11
4.39648e-11
-6.35048e-11
-2.9754e-11
0
0
-2.17604e-11
0
3.24185e-11
1.46549e-11
-3.24185e-11
1.02141e-11
-7.28306e-11
-5.59552e-11
-2.53131e-11
7.63833e-11
-2.57572e-11
-5.32907e-12
4.66294e-11
1.11022e-11
0
-4.44089e-13
-4.44089e-13
0
4.92939e-11
0
-4.61853e-11
-4.04121e-11
1.72795e-09
1.76525e-09
-2.44249e-11
2.4869e-11
5.55112e-11
7.37188e-11
5.28466e-11
-8.88178e-12
2.09166e-10
3.73035e-11
1.75548e-09
1.77058e-09
1.73195e-11
-2.08722e-11
6.08402e-11
3.59712e-11
-4.44089e-13
6.79456e-11
2.05169e-10
7.14984e-11
-1.7617e-09
-2.70894e-11
-1.37668e-11
3.55271e-11
-6.12843e-11
-1.3145e-10
-1.25677e-10
-2.08722e-11
-1.84297e-10
-6.61693e-11
-1.7284e-09
3.86358e-11
-9.01501e-11
-4.79616e-11
-8.61533e-11
-2.23377e-10
-1.94067e-10
-7.90479e-11
-2.11831e-10
-6.70575e-11
-2.26485e-11
3.28626e-11
-3.33067e-11
-4.61853e-11
6.57252e-11
-9.28146e-11
3.55271e-12
0
-1.06581e-11
5.19584e-11
-5.37348e-11
-4.70735e-11
8.88178e-13
4.61853e-11
0
0
4.66294e-11
4.92939e-11
6.4837e-11
0
5.59552e-11
3.28626e-11
-4.44089e-11
-3.64153e-11
-8.9706e-11
6.79456e-11
-2.30926e-11
-2.30926e-11
-4.44089e-13
-7.10543e-12
1.77636e-12
4.08562e-11
8.88178e-12
2.26485e-11
8.88178e-12
3.90799e-11
-6.39488e-11
0
-4.61853e-11
6.75016e-11
-2.39808e-11
-2.17604e-11
9.32587e-12
1.59872e-11
2.44249e-11
-2.70894e-11
-3.55271e-12
-3.81917e-11
6.43929e-11
4.70735e-11
4.66294e-11
3.55271e-12
-9.32587e-12
-2.30926e-11
-9.32587e-12
-2.17604e-11
1.86517e-11
1.46549e-11
3.41949e-11
-6.70575e-11
1.7466e-09
1.76037e-09
6.57252e-11
5.32907e-11
4.57412e-11
6.83897e-11
1.58984e-10
8.26006e-11
1.28786e-11
-2.66454e-12
1.72884e-09
1.74216e-09
7.37188e-11
2.30926e-11
7.01661e-11
8.88178e-11
2.05169e-10
1.46549e-11
4.21885e-11
8.9706e-11
6.4837e-11
3.01981e-11
-1.73195e-11
-4.13003e-11
-2.79776e-11
-1.18572e-10
-2.57572e-11
-1.28786e-10
-2.9754e-11
-2.44249e-11
3.59712e-11
-3.95239e-11
-2.30926e-11
-3.24185e-11
-3.24185e-11
-1.5854e-10
-2.53131e-11
-1.59428e-10
1.77636e-12
-4.92939e-11
4.75175e-11
-5.77316e-11
1.64313e-11
-3.01981e-11
7.06102e-11
-4.04121e-11
1.54099e-10
-1.90958e-11
2.9754e-11
0
8.88178e-13
0
4.44089e-13
-4.13003e-11
-2.22045e-12
0
-4.88498e-12
0
0
0
-1.9984e-11
-8.88178e-13
-2.30926e-11
-9.32587e-12
-5.63993e-11
0
-1.58096e-10
1.06581e-11
-2.57572e-11
-2.66454e-12
2.84217e-11
-4.44089e-12
0
4.21885e-11
3.37508e-11
2.30926e-11
3.01981e-11
3.01981e-11
-7.10543e-12
0
7.10543e-12
4.92939e-11
6.21725e-12
3.06422e-11
1.5099e-11
2.08722e-11
2.13163e-11
-6.21725e-12
2.57572e-11
-1.90958e-11
-2.9754e-11
5.32907e-11
0
1.24345e-11
-1.19904e-11
0
-2.9754e-11
1.26565e-10
4.88498e-12
2.30926e-11
1.66178e-09
1.82654e-09
7.72715e-11
8.88178e-13
-1.33227e-11
1.38556e-10
7.54952e-12
1.46549e-11
1.29674e-10
1.56319e-10
1.72351e-09
1.83942e-09
8.30447e-11
-3.01981e-11
1.33227e-12
1.36779e-10
2.84217e-11
-1.26565e-10
1.31894e-10
1.36779e-10
-1.26121e-10
-1.42109e-10
-1.2923e-10
-1.2923e-10
-1.31894e-10
3.9968e-12
-1.42109e-10
-1.26121e-10
-1.2923e-10
-3.77476e-11
-1.13687e-10
-1.32339e-10
-1.30562e-10
-1.28786e-10
-1.34559e-10
0
-1.45661e-10
-1.2923e-10
-1.28786e-10
-1.36779e-10
1.77636e-12
1.06581e-11
1.27454e-10
2.17604e-11
1.2701e-10
-1.53655e-10
1.38112e-10
1.77636e-12
4.44089e-13
-9.81437e-11
-1.28786e-11
1.17684e-10
2.22045e-12
-4.44089e-12
1.33227e-10
-1.25677e-10
9.32587e-12
2.66454e-12
0
1.30562e-10
-2.53131e-11
-2.22045e-12
3.9968e-12
-2.22045e-11
-1.28786e-10
1.50102e-10
-1.4122e-10
1.28786e-10
-4.44089e-13
0
1.31006e-10
-1.22125e-10
0
-4.44089e-13
-1.31006e-10
0
0
0
2.26485e-11
0
1.95399e-11
-2.35367e-11
-1.43441e-10
1.27454e-10
3.55271e-12
3.9968e-12
-1.06581e-11
-1.2923e-10
-2.53131e-11
5.77316e-12
-1.38112e-10
1.33671e-10
0
1.31894e-10
1.3145e-10
1.25233e-10
1.24345e-10
0
-2.70894e-11
0
1.36779e-10
1.54543e-10
1.45661e-10
2.22045e-12
1.31006e-10
4.44089e-13
1.54099e-10
1.3145e-10
5.63993e-11
1.2923e-10
1.39444e-10
3.55271e-12
1.32339e-10
1.77636e-12
1.33227e-12
4.44089e-12
9.32587e-12
1.32339e-10
3.64153e-11
3.9968e-12
-8.70415e-11
-5.77316e-12
-3.77476e-11
-1.2701e-10
-2.4869e-11
-1.37224e-10
8.43769e-12
-2.4869e-11
8.88178e-13
-1.06137e-10
-5.59552e-11
-8.52651e-11
-2.30926e-11
-2.14495e-10
-2.44249e-11
-1.30562e-10
1.90958e-11
-2.44249e-11
-8.70415e-11
-9.50351e-11
0
-7.9492e-11
-1.02141e-11
-9.54792e-11
-1.82077e-11
-1.33227e-11
7.10543e-12
5.32907e-12
-3.4639e-11
-3.55271e-11
0
6.39488e-11
0
2.53131e-11
-5.68434e-11
0
-5.59552e-11
0
5.19584e-11
0
6.30607e-11
4.57412e-11
2.35367e-11
7.90479e-11
4.21885e-11
1.90958e-11
-3.28626e-11
-5.32907e-12
-6.17284e-11
4.66294e-11
-4.44089e-13
-6.4837e-11
0
1.86517e-11
6.12843e-11
-8.88178e-13
1.86517e-11
2.35367e-11
1.82077e-11
-4.70735e-11
1.82077e-11
-2.66454e-11
-1.42109e-11
1.37668e-11
-5.32907e-12
0
-3.5083e-11
1.77636e-11
1.82077e-11
-5.77316e-12
3.06422e-11
4.4853e-11
8.88178e-13
2.57572e-11
1.82077e-11
8.88178e-13
0
0
-7.9492e-11
4.75175e-11
0
7.72715e-11
1.69198e-10
-1.02141e-11
7.99361e-12
-1.77636e-12
6.43929e-11
1.38112e-10
7.81597e-11
1.32783e-10
1.77636e-11
4.92939e-11
1.55875e-10
3.10862e-12
2.22045e-12
-1.77636e-12
2.88658e-11
1.32339e-10
9.63674e-11
1.27454e-10
-1.37668e-11
-4.9738e-11
-2.22045e-11
-8.70415e-11
-1.32783e-10
3.9968e-12
-1.65645e-10
-2.22045e-11
-9.63674e-11
-1.27454e-10
-1.77636e-11
-4.17444e-11
-8.4821e-11
-1.68754e-11
-1.86962e-10
-5.10703e-11
-2.03837e-10
-3.9968e-12
-1.73195e-11
-1.82077e-10
-8.61533e-11
4.08562e-11
-1.37668e-11
5.24025e-11
-4.88498e-12
-2.35367e-11
3.24185e-11
0
6.21725e-11
-7.9492e-11
-7.54952e-12
2.62013e-11
1.06581e-11
0
-2.22045e-11
-2.22045e-11
6.4837e-11
-7.06102e-11
0
-2.13163e-11
8.57092e-11
-7.68274e-11
-4.88498e-12
2.44249e-11
-3.59712e-11
-3.06422e-11
-7.68274e-11
2.35367e-11
-5.24025e-11
3.77476e-11
-4.26326e-11
-5.06262e-11
2.17604e-11
-5.06262e-11
8.88178e-13
2.17604e-11
0
2.13163e-11
-5.10703e-11
8.88178e-13
-1.82077e-11
5.81757e-11
-3.81917e-11
-7.54952e-12
2.26485e-11
-2.57572e-11
5.24025e-11
-5.90639e-11
8.34888e-11
2.26485e-11
0
5.72875e-11
0
-2.84217e-11
0
-3.95239e-11
-3.41949e-11
0
5.72875e-11
2.13163e-11
-4.44089e-12
0
5.72875e-11
-1.11022e-11
2.08722e-11
5.72875e-11
5.77316e-12
3.68594e-11
-2.4869e-11
2.17604e-11
3.19744e-11
-1.86517e-11
3.15303e-11
6.70575e-11
7.90479e-11
7.10543e-11
2.22045e-11
3.15303e-11
-1.86517e-11
5.68434e-11
-2.13163e-11
-9.72555e-11
-4.35207e-11
-1.19016e-10
-3.77476e-11
-8.88178e-11
-1.37224e-10
-8.88178e-13
-8.74856e-11
3.9968e-12
-2.62013e-11
-6.79456e-11
-3.37508e-11
-5.68434e-11
-2.22045e-12
-2.62013e-11
-1.44329e-10
-2.62013e-11
-4.44089e-13
-8.43769e-12
-2.88658e-11
6.39488e-11
-1.24345e-11
8.61533e-11
-5.77316e-12
2.62013e-11
-2.44249e-11
-6.17284e-11
5.50671e-11
2.22045e-12
-6.30607e-11
-1.86517e-11
-4.92939e-11
2.44249e-11
-1.24345e-11
-6.26166e-11
-7.9492e-11
-6.26166e-11
-8.70415e-11
1.37668e-11
-6.66134e-12
-6.39488e-11
-5.77316e-12
-1.90958e-11
4.13003e-11
3.64153e-11
3.10862e-11
3.64153e-11
1.5099e-11
-7.99361e-12
0
7.63833e-11
0
-2.13163e-11
0
6.75016e-11
1.82077e-11
6.75016e-11
7.63833e-11
-2.04281e-11
4.79616e-11
5.24025e-11
6.75016e-11
-1.46549e-11
-1.24345e-11
-3.64153e-11
-7.41629e-11
-5.59552e-11
-6.12843e-11
-5.41789e-11
4.52971e-11
-4.08562e-11
3.95239e-11
2.84217e-11
-2.88658e-11
0
6.12843e-11
-6.83897e-11
1.02141e-11
-2.88658e-11
-1.68754e-11
4.39648e-11
-2.44249e-11
3.19744e-11
2.08722e-11
6.26166e-11
2.05169e-10
8.30447e-11
7.86038e-11
1.90958e-10
1.90958e-11
5.10703e-11
2.44249e-11
-6.66134e-12
5.01821e-11
2.13163e-11
1.43885e-10
8.88178e-11
0
1.78524e-10
-1.77636e-11
2.57572e-11
-8.88178e-13
-6.75016e-11
-8.88178e-13
-1.27898e-10
-1.57652e-10
-8.88178e-13
-7.81597e-11
-1.68754e-10
-7.06102e-11
2.88658e-11
-4.26326e-11
-1.77636e-11
-7.72715e-11
-2.02949e-10
-1.83853e-10
-8.74856e-11
-1.73195e-11
-2.02949e-10
5.32907e-12
-8.30447e-11
2.22045e-12
6.26166e-11
-6.52811e-11
-8.65974e-11
-5.19584e-11
-8.61533e-11
3.59712e-11
-3.86358e-11
4.92939e-11
-1.68754e-11
1.46549e-11
0
4.92939e-11
4.9738e-11
4.44089e-11
-7.99361e-12
0
4.92939e-11
-3.59712e-11
1.95399e-11
-6.21725e-12
1.77636e-12
6.12843e-11
5.59552e-11
7.68274e-11
3.19744e-11
-2.4869e-11
7.54952e-11
0
6.21725e-12
0
7.54952e-12
-4.92939e-11
-4.92939e-11
6.66134e-12
6.75016e-11
6.21725e-12
-4.92939e-11
-2.53131e-11
-9.76996e-12
-7.54952e-11
-7.10543e-12
-1.42109e-11
-5.01821e-11
-2.44249e-11
5.06262e-11
3.64153e-11
-1.42109e-11
2.4869e-11
-4.17444e-11
2.4869e-11
-8.61533e-11
7.50511e-11
6.17284e-11
-4.08562e-11
2.57572e-11
-4.13003e-11
7.50511e-11
9.32587e-11
7.41629e-11
7.4607e-11
5.32907e-12
1.24345e-11
2.10498e-10
3.01981e-11
1.64313e-11
2.75335e-11
1.24345e-11
1.55431e-11
4.57412e-11
-4.44089e-12
9.14824e-11
-4.44089e-12
1.46105e-10
4.57412e-11
1.55431e-11
4.57412e-11
-4.44089e-12
1.06581e-11
-2.22045e-12
-1.3145e-10
-2.13163e-11
2.22045e-12
-1.31894e-10
-4.79616e-11
-1.3145e-10
-3.10862e-12
-1.95399e-11
-4.44089e-13
-8.61533e-11
-1.54543e-10
-7.28306e-11
-8.4821e-11
-1.43441e-10
-6.83897e-11
-1.30562e-10
-8.79297e-11
-4.44089e-13
-1.15463e-11
-1.28786e-11
-6.61693e-11
-6.12843e-11
-8.65974e-11
-5.77316e-12
1.11022e-11
-2.39808e-11
-1.28786e-11
-3.64153e-11
1.95399e-11
6.9722e-11
1.82077e-11
7.28306e-11
4.52971e-11
-6.39488e-11
6.4837e-11
-5.4623e-11
6.9722e-11
-5.01821e-11
-6.26166e-11
-1.73195e-11
6.79456e-11
9.10383e-11
4.39648e-11
-4.84057e-11
-3.59712e-11
-6.26166e-11
-1.73195e-11
1.77636e-11
-5.06262e-11
6.66134e-12
-1.28786e-11
7.99361e-12
3.77476e-11
0
6.66134e-12
0
6.66134e-12
2.79776e-11
6.21725e-12
3.06422e-11
-6.75016e-11
-2.62013e-11
-3.81917e-11
-2.57572e-11
8.12683e-11
8.30447e-11
2.44249e-11
3.55271e-11
1.33227e-11
8.88178e-13
-2.88658e-11
-2.93099e-11
-5.06262e-11
0
0
1.24345e-11
0
-2.75335e-11
7.37188e-11
3.10862e-12
1.96732e-10
1.42109e-11
2.10942e-10
5.77316e-11
-2.30926e-11
-2.22045e-12
-1.86517e-11
-1.68754e-11
3.59712e-11
1.02141e-11
1.78524e-10
1.68754e-11
1.86073e-10
5.28466e-11
-1.86517e-11
3.59712e-11
-1.86517e-11
3.15303e-11
5.32907e-12
-1.55431e-11
-2.44249e-11
-3.4639e-11
-1.32339e-10
-1.27898e-10
-4.79616e-11
-2.44249e-11
-3.10862e-12
-1.95399e-11
-6.21725e-12
-8.88178e-12
-5.55112e-11
-3.19744e-11
-1.36335e-10
-1.57208e-10
8.43769e-12
-1.90958e-11
-1.02141e-11
-4.44089e-13
-7.54952e-11
-6.08402e-11
5.77316e-12
3.10862e-12
-5.77316e-12
-1.77636e-11
2.9754e-11
-6.30607e-11
-7.4607e-11
-6.26166e-11
-6.43929e-11
-5.81757e-11
3.06422e-11
-3.01981e-11
-3.73035e-11
2.84217e-11
-4.44089e-12
-7.99361e-12
-5.81757e-11
-5.06262e-11
3.41949e-11
2.66454e-11
-2.88658e-11
-1.06581e-11
-5.9508e-11
-7.63833e-11
-1.95399e-11
0
3.55271e-11
8.57092e-11
0
1.73195e-11
-6.35048e-11
1.86517e-11
0
-9.28146e-11
-4.08562e-11
-4.9738e-11
1.68754e-11
0
-3.77476e-11
7.10543e-12
-1.82077e-11
-4.44089e-13
-1.42109e-11
1.42109e-11
4.08562e-11
8.30447e-11
2.84217e-11
-5.32907e-12
7.41629e-11
4.79616e-11
4.52971e-11
7.99361e-12
-1.33227e-11
8.65974e-11
1.95399e-11
0
1.64313e-11
2.75335e-11
7.4607e-11
4.39648e-11
6.79456e-11
4.35207e-11
5.72875e-11
5.68434e-11
1.02141e-11
-2.66454e-12
1.42109e-11
1.37224e-10
-4.44089e-12
3.10862e-12
4.44089e-11
3.4639e-11
3.19744e-11
-1.46549e-11
3.15303e-11
7.06102e-11
3.4639e-11
1.58096e-10
-2.22045e-12
-6.21725e-12
-1.17684e-10
-6.70575e-11
0
-1.33227e-10
-6.21725e-12
-7.54952e-12
-4.79616e-11
0
-1.5099e-11
-8.79297e-11
-1.39e-10
-5.32907e-12
-1.90958e-11
-1.24789e-10
2.22045e-12
-6.21725e-11
-3.10862e-12
-1.90958e-11
0
-3.01981e-11
0
5.28466e-11
2.22045e-12
-5.41789e-11
-6.35048e-11
-5.41789e-11
-2.08722e-11
-1.11022e-11
-6.17284e-11
6.75016e-11
-4.75175e-11
-6.21725e-11
-6.17284e-11
-2.04281e-11
-3.73035e-11
6.03961e-11
-4.66294e-11
1.24345e-11
8.43769e-12
4.04121e-11
-1.9984e-11
3.41949e-11
4.44089e-13
0
1.64313e-11
-4.44089e-13
6.83897e-11
-7.50511e-11
-4.44089e-13
-2.75335e-11
-4.44089e-13
3.9968e-11
-4.44089e-13
-4.17444e-11
2.53131e-11
0
5.37348e-11
-1.24345e-11
-8.17124e-11
-2.79776e-11
6.66134e-12
-6.83897e-11
-3.41949e-11
4.84057e-11
-1.64313e-11
6.17284e-11
-6.79456e-11
5.4623e-11
8.17124e-11
2.70894e-11
4.79616e-11
4.88498e-12
8.26006e-11
5.68434e-11
-2.53131e-11
-5.9508e-11
-4.92939e-11
-6.83897e-11
6.79456e-11
2.22045e-12
1.42553e-10
4.9738e-11
1.26565e-10
1.42997e-10
7.32747e-11
1.2923e-10
7.06102e-11
1.62981e-10
-1.42109e-11
0
1.49658e-10
2.13163e-11
9.28146e-11
1.34115e-10
3.81917e-11
1.90958e-10
4.30767e-11
2.18048e-10
-1.77636e-11
-1.30562e-10
-2.44249e-11
-6.30607e-11
-1.37668e-10
-1.27898e-10
-1.68754e-11
-2.44249e-11
-7.32747e-11
-3.77476e-11
-4.88498e-11
-2.14495e-10
-5.55112e-11
-5.32907e-12
-1.86962e-10
-2.21601e-10
-6.39488e-11
-1.90958e-11
-8.21565e-11
-5.10703e-11
-5.24025e-11
-9.19265e-11
-6.26166e-11
6.39488e-11
0
-1.82077e-11
3.06422e-11
-6.30607e-11
4.92939e-11
-4.44089e-11
-2.17604e-11
7.01661e-11
-3.19744e-11
-3.10862e-12
5.01821e-11
6.4837e-11
6.4837e-11
-7.99361e-12
7.01661e-11
2.79776e-11
3.41949e-11
6.12843e-11
3.86358e-11
-7.86038e-11
-3.55271e-11
-8.88178e-12
-3.06422e-11
0
7.10543e-12
7.37188e-11
-1.82077e-11
6.66134e-12
6.35048e-11
8.43769e-12
-9.05942e-11
2.84217e-11
6.66134e-12
-6.79456e-11
7.10543e-12
-2.22045e-11
-3.77476e-11
-6.12843e-11
-1.82077e-11
-1.42109e-11
-1.82077e-11
-5.32907e-11
-7.99361e-12
8.30447e-11
-2.9754e-11
-3.5083e-11
1.82077e-11
-4.44089e-13
4.88498e-12
-4.44089e-13
1.90958e-11
-9.28146e-11
-4.44089e-13
5.24025e-11
4.44089e-12
-4.52971e-11
5.28466e-11
9.63674e-11
6.66134e-11
7.81597e-11
6.21725e-11
2.09166e-10
1.42109e-11
-2.30926e-11
2.22045e-11
4.30767e-11
4.88498e-11
1.02141e-11
1.90958e-11
-1.15463e-11
7.86038e-11
2.23377e-10
-1.86517e-11
1.42109e-11
-2.30926e-11
8.9706e-11
1.0969e-10
1.26121e-10
-1.32339e-10
-4.17444e-11
-5.77316e-12
4.44089e-13
-1.28786e-10
-1.32339e-10
-5.68434e-11
-1.29674e-10
-4.57412e-11
1.15907e-10
-1.56319e-10
-6.08402e-11
-1.56319e-10
-2.22045e-12
-6.21725e-12
-1.56319e-10
8.4821e-11
-1.53655e-10
-1.18572e-10
-1.28342e-10
1.33227e-12
-8.88178e-13
-1.50102e-10
-1.2923e-10
-1.11022e-11
-2.35367e-11
1.51879e-10
-3.10862e-12
-4.44089e-12
0
2.13163e-11
1.52323e-10
1.77636e-11
-1.34115e-10
-6.66134e-12
-4.44089e-12
0
-3.9968e-12
-1.95399e-11
-5.32907e-12
1.28342e-10
5.77316e-12
1.53211e-10
1.2701e-10
1.37668e-10
2.30926e-11
-1.3145e-10
-2.08722e-11
0
1.11022e-11
2.66454e-12
4.44089e-12
-1.68754e-11
1.33227e-10
-1.22125e-10
0
1.06581e-11
1.5854e-10
-5.77316e-12
-1.82077e-11
0
-1.95399e-11
0
-3.4639e-11
-1.27454e-10
1.33227e-12
3.55271e-12
0
1.56319e-10
-1.57208e-10
1.30562e-10
-1.56319e-10
2.08722e-11
-1.04361e-10
-2.26485e-11
3.01981e-11
-1.56319e-10
-1.54543e-10
1.46549e-11
1.54987e-10
-1.2923e-10
1.52323e-10
4.44089e-13
-9.32587e-11
8.88178e-13
4.44089e-13
1.31006e-10
1.54543e-10
-1.26565e-10
1.57652e-10
-1.29674e-10
1.55431e-10
1.33671e-10
-2.26485e-11
2.9754e-11
0
1.57652e-10
1.54543e-10
-1.26121e-10
-1.26121e-10
-1.33227e-10
-1.26121e-10
-1.26121e-10
-1.3145e-10
-1.26121e-10
-1.31006e-10
-1.26121e-10
1.26565e-10
-1.26121e-10
-1.24789e-10
-1.27454e-10
-1.26121e-10
-1.26121e-10
-1.27898e-10
-1.26121e-10
-1.46105e-10
-1.26121e-10
1.27454e-10
1.33227e-12
1.77636e-12
1.77636e-12
-2.39808e-11
-2.39808e-11
1.33227e-10
-2.39808e-11
1.33227e-10
-2.39808e-11
5.77316e-12
0
1.29674e-10
0
1.31894e-10
1.31894e-10
1.31006e-10
1.31006e-10
1.02141e-11
1.31894e-10
6.21725e-12
-1.33227e-12
-3.01981e-11
2.75335e-11
1.54543e-10
1.54543e-10
1.33227e-12
1.55431e-10
-1.82077e-11
1.54543e-10
4.44089e-13
0
-1.33671e-10
-1.42109e-11
-1.34115e-10
-1.34115e-10
0
-1.34115e-10
1.37668e-10
-1.38112e-10
-1.77636e-12
-1.82077e-11
2.84217e-11
-2.22045e-11
-1.33671e-10
-1.19904e-11
-1.4877e-10
-1.33671e-10
-1.11022e-10
-1.35891e-10
-1.77636e-12
0
-2.57572e-11
2.66454e-12
1.33671e-10
1.34115e-10
0
1.33671e-10
4.44089e-13
1.38112e-10
1.77636e-12
1.50546e-10
1.26565e-10
1.30562e-10
1.35003e-10
1.28786e-11
1.49658e-10
1.35003e-10
-8.88178e-13
1.36779e-10
-1.31894e-10
1.32339e-10
1.54099e-10
1.41664e-10
1.33227e-12
1.33227e-12
1.33227e-12
1.33227e-12
-1.30118e-10
1.33227e-12
-1.32783e-10
-8.83738e-11
-2.39808e-11
-4.21885e-11
-2.44249e-11
-2.39808e-11
-3.9968e-11
-2.44249e-11
-4.13003e-11
-7.72715e-11
4.44089e-12
-4.44089e-13
-9.50351e-11
-2.84217e-11
-4.26326e-11
-4.26326e-11
2.22045e-12
-4.26326e-11
-6.61693e-11
-4.21885e-11
-1.2923e-10
6.75016e-11
4.44089e-12
5.77316e-12
4.88498e-12
4.88498e-12
2.26485e-11
1.11022e-11
-6.21725e-12
6.35048e-11
-1.47438e-10
-4.13003e-11
6.4837e-11
0
0
0
0
0
1.19904e-11
0
-7.99361e-12
-5.32907e-12
-4.88498e-12
2.84217e-11
-4.88498e-12
-4.88498e-12
1.82077e-11
-1.11022e-11
4.30767e-11
1.19904e-11
1.4877e-10
1.82077e-11
2.66454e-12
-3.28626e-11
1.82077e-11
1.82077e-11
0
1.82077e-11
5.50671e-11
1.82077e-11
1.39444e-10
2.08722e-11
0
-2.04281e-11
2.35367e-11
2.30926e-11
-5.9508e-11
2.30926e-11
-2.70894e-11
4.44089e-13
-5.32907e-12
2.30926e-11
3.55271e-12
5.77316e-12
-4.44089e-13
0
0
0
8.88178e-13
-4.44089e-13
-1.28342e-10
1.34115e-10
1.90958e-11
2.08722e-11
-5.77316e-12
-5.77316e-12
5.41789e-11
-5.77316e-12
4.88498e-12
-5.77316e-12
4.88498e-12
1.3145e-10
1.86517e-11
4.79616e-11
1.77636e-11
1.77636e-11
-5.77316e-12
1.77636e-11
-2.79776e-11
1.77636e-11
1.3145e-10
-4.04121e-11
2.70894e-11
-8.17124e-11
-4.04121e-11
-1.32783e-10
-4.04121e-11
-4.04121e-11
1.15463e-11
-4.04121e-11
4.88498e-12
-2.22045e-12
-2.79776e-11
-1.77636e-12
4.44089e-13
-1.86962e-10
-6.43929e-11
-5.28466e-11
1.68754e-11
-5.28466e-11
-1.32783e-10
-4.44089e-11
-2.26485e-11
3.28626e-11
-4.4853e-11
-2.26485e-11
8.88178e-13
-4.44089e-11
-3.68594e-11
-3.41949e-11
-1.24345e-11
-7.23865e-11
-2.22045e-11
0
-7.4607e-11
-2.22045e-11
-1.02141e-11
-2.17604e-11
0
-2.17604e-11
-1.73195e-11
4.44089e-11
-1.82077e-11
4.66294e-11
4.44089e-11
-1.82077e-11
-8.88178e-13
4.44089e-11
-1.68754e-11
7.59393e-11
-1.2168e-10
6.43929e-11
8.88178e-13
1.77636e-12
6.43929e-11
8.88178e-13
2.17604e-11
6.43929e-11
1.33227e-12
6.39488e-11
0
3.41949e-11
-8.88178e-13
-8.4821e-11
4.21885e-11
-8.88178e-13
3.4639e-11
4.21885e-11
5.41789e-11
-4.70735e-11
-1.02141e-11
0
0
-1.77636e-12
-8.88178e-13
0
-4.44089e-13
-8.88178e-13
-5.77316e-12
-4.26326e-11
0
-1.55431e-11
4.4853e-11
2.12275e-10
-2.26485e-11
4.4853e-11
-1.5099e-11
-2.26485e-11
1.33227e-10
2.4869e-11
1.45217e-10
-1.06581e-11
7.86038e-11
1.26565e-10
-1.06581e-11
7.86038e-11
3.15303e-11
-1.06581e-11
1.30562e-10
3.15303e-11
1.55431e-10
-2.13163e-11
3.9968e-12
-3.81917e-11
-2.13163e-11
3.9968e-12
-2.04281e-11
-2.53131e-11
-1.39888e-10
-1.5099e-11
-1.2923e-10
-2.62013e-11
4.44089e-12
2.66454e-12
-2.08722e-11
4.44089e-12
-4.30767e-11
-3.19744e-11
-1.31894e-10
-2.08722e-11
-4.44089e-13
-6.17284e-11
-2.35367e-11
-3.86358e-11
1.24345e-11
1.24345e-11
3.9968e-12
6.21725e-12
-8.88178e-12
6.21725e-12
1.28342e-10
-6.26166e-11
0
0
-6.83897e-11
0
2.26485e-11
-6.83897e-11
-3.10862e-12
-6.83897e-11
-1.28342e-10
7.99361e-11
3.37508e-11
1.37668e-11
-6.9722e-11
-1.24345e-11
-2.75335e-11
-3.5083e-11
-2.57572e-11
-6.9722e-11
-1.29674e-10
0
-5.32907e-12
-3.86358e-11
8.65974e-11
-5.32907e-12
-6.75016e-11
8.65974e-11
-3.73035e-11
8.65974e-11
-1.33227e-12
2.66454e-12
-7.77156e-11
0
7.77156e-11
-1.33227e-11
-4.4853e-11
-9.32587e-12
4.26326e-11
7.77156e-11
0
4.79616e-11
1.46549e-11
-2.70894e-11
-7.63833e-11
4.88498e-12
0
-4.08562e-11
-2.22045e-12
-7.63833e-11
8.88178e-13
-2.44249e-11
8.92619e-11
1.92735e-10
-8.88178e-13
3.4639e-11
8.70415e-11
5.10703e-11
1.2923e-10
-8.88178e-13
1.30118e-10
1.5099e-11
1.11022e-11
1.93179e-10
7.72715e-11
2.13163e-11
8.74856e-11
4.21885e-11
1.72307e-10
7.72715e-11
1.29674e-10
-4.30767e-11
-3.55271e-12
-8.17124e-11
-4.30767e-11
-1.33227e-12
-4.30767e-11
-4.30767e-11
-7.01661e-11
-5.32907e-12
4.44089e-12
-7.72715e-11
-7.86038e-11
0
-8.88178e-12
-7.72715e-11
-2.44249e-11
-7.72715e-11
0
-7.72715e-11
-1.50102e-10
-4.44089e-11
4.44089e-13
3.28626e-11
1.82077e-11
4.44089e-13
9.76996e-12
1.82077e-11
2.39808e-11
-7.19425e-11
-1.19904e-11
4.9738e-11
-4.44089e-13
-4.04121e-11
-6.83897e-11
-4.44089e-13
-3.55271e-12
0
-4.04121e-11
0
-4.44089e-13
3.15303e-11
-1.19904e-11
-3.33067e-11
-3.06422e-11
-5.41789e-11
-2.22045e-11
-3.06422e-11
9.76996e-12
2.17604e-11
-1.25677e-10
-2.75335e-11
6.39488e-11
3.28626e-11
2.17604e-11
2.17604e-11
-2.75335e-11
2.17604e-11
3.28626e-11
2.17604e-11
3.64153e-11
4.66294e-11
7.99361e-12
6.4837e-11
7.10543e-12
5.01821e-11
4.66294e-11
7.10543e-12
-1.37668e-11
6.66134e-12
-1.06581e-11
2.4869e-11
-8.21565e-11
6.21725e-12
2.75335e-11
-3.9968e-11
5.32907e-11
2.75335e-11
2.22045e-12
2.79776e-11
-4.13003e-11
5.77316e-12
1.35003e-10
1.4122e-10
4.52971e-11
1.35003e-10
5.77316e-12
4.52971e-11
1.73639e-10
4.52971e-11
1.49214e-10
2.84217e-11
2.25597e-10
1.27454e-10
2.57572e-11
2.25597e-10
0
2.57572e-11
1.30562e-10
2.57572e-11
1.59872e-10
-1.31006e-10
-6.70575e-11
-3.95239e-11
1.33227e-12
-1.74083e-10
-2.22045e-11
1.33227e-12
-4.88498e-12
1.33227e-12
-1.45661e-10
-1.72751e-10
2.35367e-11
-2.39808e-11
1.33227e-12
-1.36335e-10
-3.9968e-11
1.33227e-12
1.77636e-12
1.33227e-12
-2.22045e-12
-1.82077e-11
7.54952e-12