/*--------------------------------*- C++ -*----------------------------------*\
  =========                 |
  \\      /  F ield         | OpenFOAM: The Open Source CFD Toolbox
   \\    /   O peration     | Website:  https://openfoam.org
    \\  /    A nd           | Version:  10
     \\/     M anipulation  |
\*---------------------------------------------------------------------------*/
FoamFile
{
    format      ascii;
    class       volScalarField;
    location    "0.2";
    object      gradTy;
}
// * * * * * * * * * * * * * * * * * * * * * * * * * * * * * * * * * * * * * //

dimensions      [0 -1 0 1 0 0 0];

internalField   nonuniform List<scalar> 
47104
(
4.37803e-13
4.37779e-13
2.88613e-13
-9.20384e-15
-4.45675e-13
2.97116e-13
4.89823e-12
3.07238e-13
-2.88822e-13
-4.03495e-12
6.04907e-13
4.36832e-13
6.31915e-13
3.20462e-12
-2.60679e-13
-5.6433e-13
-5.87819e-15
-1.34917e-13
1.1985e-13
4.59561e-13
3.11947e-12
6.87992e-13
4.64792e-14
3.6673e-13
5.22688e-13
-6.92932e-14
-5.19282e-12
-1.04742e-12
-4.27947e-14
3.93567e-12
1.62026e-13
3.07703e-13
-9.81717e-14
-3.39214e-12
1.25239e-13
6.46574e-13
4.8656e-14
1.62159e-13
-3.27093e-13
-4.20263e-13
-3.6016e-12
-7.02995e-13
1.07084e-12
-1.17445e-13
1.16798e-12
7.21228e-14
3.21831e-12
3.83547e-13
3.70401e-12
-3.6664e-13
-3.5884e-13
3.42796e-12
-3.46931e-13
2.46253e-15
-1.69586e-13
-2.94533e-13
-4.9538e-14
1.27164e-13
2.73216e-12
1.30267e-13
9.99408e-14
5.61016e-13
-7.90775e-13
-2.70578e-13
-6.27644e-12
2.44905e-14
-3.3784e-12
-9.97185e-14
-3.79811e-12
5.09299e-13
1.98883e-13
-3.44773e-12
-7.5063e-14
7.63722e-13
1.19516e-13
2.51101e-13
-1.00785e-13
4.30017e-12
-2.90841e-12
4.12847e-12
-2.16963e-14
-2.52239e-13
3.80111e-13
1.60857e-13
5.25593e-12
-3.77713e-12
-1.58003e-14
-8.96089e-13
-3.49803e-12
-5.68543e-13
9.51284e-15
1.39735e-13
4.37336e-13
-7.34223e-13
1.48533e-13
-3.86194e-12
1.57886e-13
-4.47682e-12
-3.43775e-12
-4.01603e-12
-8.91003e-14
0
-6.2719e-12
-4.47681e-13
1.49178e-13
-1.49177e-13
5.67058e-12
3.43453e-12
-3.88295e-12
6.01163e-14
-3.00331e-12
4.66138e-14
3.70382e-12
4.29964e-12
1.04704e-12
-1.00964e-12
-1.79462e-12
-1.15977e-12
1.8612e-14
-4.41381e-13
-3.458e-13
-1.14037e-13
6.0677e-12
4.60135e-12
-4.89917e-13
-2.49477e-13
-6.97742e-12
-4.77411e-12
5.73313e-15
-3.80406e-12
3.57819e-12
8.93271e-14
-2.71063e-13
-8.20705e-12
1.25332e-12
1.0671e-11
-9.10005e-15
1.01275e-13
3.27649e-13
-4.08452e-12
-3.39289e-12
-1.04648e-13
9.71703e-12
8.63237e-12
-1.242e-12
-1.04161e-11
7.32148e-13
2.29084e-13
-8.9634e-13
5.51626e-13
-3.68118e-12
4.77522e-12
-9.18022e-12
-1.0435e-13
8.89869e-13
4.53536e-14
-5.98503e-13
-4.64759e-13
-3.87216e-12
7.79001e-12
3.50755e-12
-2.82332e-14
-8.04782e-12
-6.90232e-12
6.87536e-12
2.38499e-13
9.93884e-14
3.07323e-13
4.45995e-12
3.26654e-12
3.62819e-12
-1.19119e-12
7.42458e-12
6.41705e-12
-7.61459e-12
-1.06228e-12
1.8806e-13
-6.00728e-14
3.9496e-12
-7.22197e-12
-1.89758e-13
-4.93893e-14
8.97757e-13
-2.80365e-12
-1.12168e-13
-4.56161e-12
-4.89732e-12
-3.36682e-13
-9.10339e-14
-9.75696e-14
0
-3.5838e-12
-3.2844e-12
-2.9838e-13
4.47445e-13
-5.07121e-12
-3.28248e-12
1.19447e-12
2.98674e-13
3.28264e-12
2.09334e-13
1.19425e-12
-4.77248e-12
-4.91713e-12
-2.5336e-12
-4.47107e-13
1.04303e-12
-1.49134e-13
1.79121e-12
6.01426e-14
-3.14894e-12
-1.06562e-11
-9.67467e-12
-6.22774e-12
1.24466e-12
6.45519e-13
-1.63835e-12
-3.44167e-13
-1.23561e-13
1.4667e-13
-2.30499e-13
6.60653e-12
-6.83116e-12
1.70282e-12
-3.28199e-13
5.20764e-12
4.53395e-12
5.72016e-13
-1.12629e-13
-2.49344e-13
3.41865e-12
-9.3534e-13
6.23407e-12
-2.30755e-08
-3.35606e-08
-3.44858e-08
-2.95417e-08
-7.18299e-11
-2.08261e-13
-5.28826e-14
-2.64721e-13
5.93017e-13
-8.90635e-12
-2.41097e-09
1.05705e-09
1.12866e-09
7.41369e-10
2.11808e-12
1.41826e-14
3.62899e-15
-3.08735e-14
2.38697e-13
9.23955e-12
5.47674e-10
-2.36155e-10
-2.64648e-10
-1.71875e-10
4.14224e-12
2.56016e-13
6.76712e-14
3.19644e-13
-2.29328e-12
2.90722e-12
7.20498e-09
-2.56274e-09
-2.70197e-09
-1.86794e-09
6.9427e-12
-1.27418e-11
-2.97838e-13
-5.49327e-14
1.15607e-12
-2.8813e-12
3.9548e-10
1.85768e-10
1.86697e-10
2.64649e-10
-2.4443e-11
2.20716e-11
1.67203e-13
4.36654e-14
-2.98428e-13
1.03239e-13
-7.90054e-12
-2.45231e-13
-3.40749e-13
-3.10774e-13
9.13851e-12
-8.61486e-12
1.85717e-13
1.49184e-13
-4.17858e-12
5.36699e-12
-2.68128e-12
2.68209e-12
-1.1921e-12
-8.93881e-13
3.87693e-12
1.19407e-12
-2.98375e-13
-4.01893e-12
-2.97288e-13
-1.62433e-12
-2.78748e-12
-1.17202e-12
9.22973e-12
2.93427e-13
-4.28183e-12
-2.67504e-12
-4.16706e-12
-4.1089e-12
1.40997e-13
-4.51592e-12
1.41601e-09
1.3866e-09
1.39232e-09
1.39483e-09
8.41799e-10
-7.1892e-12
-3.06257e-13
1.19087e-13
0
-2.46208e-10
3.70052e-06
3.81471e-06
3.84807e-06
3.78782e-06
3.95619e-06
9.01211e-10
7.50817e-13
4.7008e-13
-7.25451e-12
-1.62501e-08
-0.323864
-0.48936
-0.491734
-0.485899
0.0445174
1.19076e-09
-1.7691e-14
-3.97025e-12
-2.51049e-12
-2.45712e-11
-0.00172633
-0.00589779
-0.00614882
-0.00560313
-0.000395223
5.85558e-12
3.71272e-12
-1.96444e-13
2.04336e-12
2.7403e-10
0.000108097
0.000350013
0.000367448
0.000330133
-0.000614718
4.1893e-12
1.32044e-13
7.65683e-12
3.73532e-12
1.14996e-09
0.0046518
0.0167002
0.01715
0.0160686
-0.000801149
-1.24359e-10
3.06581e-14
-2.66683e-13
5.70375e-12
3.82035e-08
0.240158
0.317917
0.319093
0.315829
-0.0438932
-1.08024e-09
-1.47945e-13
-3.25091e-12
2.64375e-13
1.91916e-08
1.14749e-07
8.81403e-08
8.6609e-08
9.36113e-08
-9.56273e-09
1.04606e-13
3.46195e-14
-1.48842e-13
-5.94368e-13
6.79018e-12
1.6134e-12
3.36901e-12
7.3244e-13
1.467e-12
-1.47648e-13
5.94489e-12
2.977e-13
-4.60862e-12
4.45245e-13
-1.91032e-12
-5.80622e-13
-2.89149e-13
7.22908e-13
1.59708e-12
1.17566e-12
-4.45151e-13
-2.82407e-12
-5.42909e-12
6.51133e-13
-1.31428e-11
4.93981e-11
-1.29679e-08
-1.1966e-08
-1.50717e-08
3.36559e-11
-6.74007e-14
-5.49963e-12
4.2887e-12
0
-3.43578e-07
-0.237049
-0.288907
-0.289452
-0.288162
0.0113493
1.41696e-09
2.81702e-12
4.96808e-12
-1.75216e-12
0.00678573
3.66131e-07
5.85973e-12
-7.9416e-14
3.75903e-11
0.000172737
6.63353e-08
5.62586e-12
1.70717e-13
-7.89093e-12
3.82055e-05
-1.11673e-08
-5.84475e-13
2.49594e-14
-9.78849e-11
-0.000318575
-2.85551e-07
-5.7606e-12
2.23654e-13
-1.89399e-11
0.000283661
1.94814e-07
2.9245e-13
-2.55865e-13
-7.42196e-12
1.1733e-07
2.94539e-05
6.37661e-05
6.38475e-05
6.38263e-05
-5.32466e-06
1.65417e-11
3.95309e-14
-1.4865e-13
1.18686e-12
5.87608e-13
-4.35385e-13
-4.48125e-12
1.44572e-13
8.5656e-12
-2.93908e-12
6.08442e-12
-1.48668e-13
-3.56895e-12
-2.67408e-12
0
1.5954e-12
-5.77313e-13
-3.03117e-12
-5.80402e-13
4.26611e-12
3.56526e-12
0
-1.54633e-13
-1.41955e-12
-8.71637e-12
3.01316e-09
-1.42046e-08
-1.29171e-08
-1.68807e-08
4.45839e-11
-2.01621e-12
4.04825e-12
3.55963e-12
1.18755e-12
-3.59059e-07
-0.243774
-0.301542
-0.302304
-0.300467
0.0118032
1.48837e-09
-3.31034e-12
3.25772e-14
-4.67267e-11
0.00840987
4.03485e-07
-4.08178e-12
1.78934e-13
3.90519e-11
0.00022118
1.06274e-07
4.48159e-12
-1.40124e-13
-3.60361e-13
2.72363e-05
-1.73494e-08
3.83979e-12
3.73467e-12
-1.28802e-10
-0.000844683
-4.32278e-07
-3.9589e-12
3.29529e-12
-3.42984e-13
-9.36494e-05
2.19223e-07
-3.49985e-12
-3.75046e-12
4.86286e-13
1.20098e-07
3.06806e-05
8.15075e-05
8.1782e-05
7.69166e-05
-2.74666e-06
2.42734e-11
3.14344e-12
-3.27102e-12
0
0
4.64045e-12
2.30897e-12
8.65959e-13
0
1.0294e-12
8.17016e-12
-2.9742e-13
-1.04154e-12
-1.63558e-12
4.4152e-13
1.45126e-12
-7.21974e-13
1.44409e-13
5.8077e-13
-1.3251e-12
1.33815e-12
3.86793e-12
-6.6901e-12
-1.44925e-12
-2.37518e-11
4.16112e-09
-1.27152e-08
-1.13547e-08
-1.5621e-08
5.02896e-11
6.5477e-14
-5.18203e-14
-2.11011e-13
7.43925e-12
-3.5932e-07
-0.244088
-0.30212
-0.302913
-0.301014
0.0118188
1.49022e-09
-4.24028e-12
5.55743e-12
-7.84039e-11
0.00841278
4.11811e-07
-3.66395e-12
-5.15119e-12
5.11906e-11
0.000227086
1.10463e-07
4.42023e-14
5.0292e-13
-7.16693e-12
2.13924e-05
-1.8086e-08
3.48154e-12
5.28007e-12
-1.37585e-10
-0.000442263
-4.4067e-07
5.41476e-12
-3.55324e-13
9.31838e-13
0.00032516
2.20045e-07
-1.66018e-13
-1.54871e-13
-8.82084e-12
1.20327e-07
3.06563e-05
8.18282e-05
8.21268e-05
7.99743e-05
-5.68303e-06
2.10902e-11
-5.02508e-12
1.48765e-13
-4.45877e-12
3.97265e-12
-3.48251e-12
5.34193e-12
4.76479e-12
-8.70814e-13
-5.29824e-12
1.93283e-12
-1.48797e-13
0
7.73581e-12
-1.17808e-12
0
-2.16742e-12
-8.9595e-12
7.55478e-12
1.47321e-13
-1.3389e-12
-5.9536e-13
7.45202e-14
9.93151e-12
-1.31889e-11
4.30382e-09
-1.26244e-08
-1.1261e-08
-1.55524e-08
4.95341e-11
2.89827e-12
-5.44039e-13
-3.8322e-13
-2.97652e-13
-3.53917e-07
-0.24409
-0.302169
-0.302966
-0.30106
0.0118189
1.45514e-09
3.40444e-12
-3.82e-13
2.51031e-10
-0.000853531
4.1296e-07
1.323e-13
5.14162e-13
5.896e-11
0.000363102
1.10566e-07
-3.37967e-12
-3.76588e-12
1.26978e-12
2.32753e-05
-1.81048e-08
-5.03711e-14
1.58345e-13
-1.45049e-10
-0.00042985
-4.41205e-07
-1.01534e-13
4.47142e-12
2.05349e-12
0.00032589
2.20178e-07
2.38449e-13
-5.82901e-14
-7.93919e-12
1.20025e-07
3.06835e-05
8.1858e-05
8.21525e-05
7.95614e-05
-5.63453e-06
1.23893e-11
1.34943e-13
1.48836e-13
2.67669e-12
-5.15271e-12
2.32317e-12
5.77909e-12
3.9013e-12
3.63117e-12
4.41812e-13
2.23145e-12
1.4887e-13
-4.46712e-13
-5.50633e-12
-1.91564e-12
1.16317e-12
4.19684e-12
-2.17092e-12
-2.76352e-12
-2.6533e-12
1.19057e-12
-2.97795e-13
-5.91675e-13
-3.90387e-12
-1.72287e-11
3.54265e-09
-1.36722e-08
-1.23772e-08
-1.64274e-08
5.24781e-11
1.14448e-13
-2.56291e-13
4.89347e-15
-6.4872e-13
-3.52008e-07
-0.244005
-0.301943
-0.302721
-0.300847
0.0118171
1.45782e-09
8.68978e-14
8.94914e-14
2.33934e-10
-0.00147557
4.09737e-07
-9.62546e-14
3.52174e-12
5.99504e-11
0.000348607
1.06515e-07
3.77785e-12
-1.30745e-13
-1.40499e-11
2.66441e-05
-1.72898e-08
-7.84709e-13
-3.9064e-12
-1.30919e-10
-0.000422433
-4.32298e-07
-3.76377e-12
2.98216e-13
-1.22075e-11
0.000325113
2.19838e-07
6.08283e-13
5.63542e-14
1.30378e-11
1.1965e-07
3.08719e-05
8.16572e-05
8.19337e-05
7.7214e-05
-2.74797e-06
2.2522e-11
-4.85014e-13
1.48892e-13
-1.63637e-12
-1.03118e-12
2.32592e-12
-4.7751e-12
7.23576e-13
-1.01793e-12
1.03154e-12
0
-7.44626e-13
-5.21248e-12
8.93121e-13
8.84923e-13
6.41223e-12
-1.45159e-12
-1.45163e-13
-1.45755e-13
-1.47508e-12
-7.29414e-12
1.48938e-13
-4.84287e-12
6.848e-13
-1.66256e-11
9.32741e-09
7.71962e-09
8.88127e-09
4.40306e-09
-4.64443e-12
-1.66636e-11
3.40844e-12
1.05011e-12
0
-3.56755e-07
-0.240139
-0.293337
-0.293943
-0.2925
0.0115087
1.3057e-09
4.59162e-12
4.6604e-12
-1.18958e-10
0.00715867
3.07067e-07
-3.29548e-12
4.14683e-14
-3.0991e-11
0.000180196
3.34626e-08
-5.15317e-12
4.01104e-13
3.45244e-12
2.36558e-05
-5.34503e-09
2.46205e-13
7.50873e-12
3.05664e-11
-0.000316236
-1.38254e-07
3.12907e-12
-2.26775e-13
-2.23464e-13
0.000302964
1.73949e-07
2.60952e-13
-3.89974e-12
-5.90198e-12
1.1832e-07
2.08839e-05
2.75856e-05
2.73996e-05
2.95586e-05
-5.15324e-06
1.62988e-11
-2.85961e-12
0
2.67848e-12
2.94872e-12
5.09935e-12
-1.30624e-12
0
-7.43184e-12
-7.22616e-12
0
-4.46885e-13
0
5.95421e-13
-1.32763e-12
-4.66434e-12
2.03235e-12
-4.06458e-12
1.31163e-12
1.47493e-13
-4.46621e-13
-2.68119e-12
3.13892e-14
-3.60994e-13
1.55753e-12
-5.36275e-12
4.4861e-12
-1.30977e-11
-1.46841e-12
-1.7343e-11
-5.98905e-12
2.09305e-14
6.3364e-15
2.97635e-13
-3.45009e-09
-5.35743e-06
-5.69415e-06
-5.69418e-06
-5.69797e-06
-4.8209e-06
1.42237e-11
2.64177e-12
1.09307e-13
2.69041e-13
4.50967e-08
-1.74438e-10
4.45638e-12
1.72566e-13
-7.10619e-12
8.14578e-10
-5.5305e-12
-1.61587e-14
-3.84554e-12
6.85312e-12
2.25684e-10
-8.66884e-12
-9.05342e-12
1.87948e-13
-6.5604e-13
-2.27391e-09
5.06683e-11
9.53441e-14
3.24527e-12
-2.94757e-13
-2.91598e-07
-6.97034e-10
4.54826e-12
-2.99073e-13
4.65066e-13
5.89058e-10
-1.79484e-08
-1.88176e-08
-1.88808e-08
-1.8637e-08
1.34833e-08
6.49687e-12
-1.49917e-13
0
-1.1905e-12
-5.89776e-13
4.51681e-12
-5.80575e-12
1.30642e-12
2.76913e-12
1.32739e-12
-1.19094e-12
1.48971e-13
-1.34024e-12
-3.42313e-12
3.0957e-12
2.90917e-13
1.15795e-12
-2.31578e-12
-4.07163e-12
2.94762e-13
-3.27492e-12
1.4895e-13
-5.35143e-12
-1.22756e-11
-1.46817e-12
1.68466e-13
6.17275e-12
-1.8425e-13
3.4619e-12
3.36699e-13
2.71658e-12
-3.57867e-12
-4.39987e-12
7.73967e-12
-1.32596e-11
1.60626e-11
-1.01603e-11
-1.58728e-12
-2.92524e-13
9.48967e-12
0
-3.40446e-13
-2.71245e-13
1.04288e-11
1.38915e-11
8.16792e-13
3.46615e-12
-1.42497e-13
-1.01242e-11
-3.61671e-13
-6.52592e-12
7.77308e-14
2.6919e-13
9.31888e-14
2.40376e-13
7.03685e-12
-3.71616e-12
-3.63009e-12
8.58294e-12
3.34075e-12
-6.17201e-12
-5.64994e-12
1.34774e-13
-8.18982e-12
-1.55253e-11
1.58863e-11
3.90459e-12
3.03452e-12
2.88377e-13
-6.21224e-12
-5.44016e-12
-5.924e-12
3.00383e-12
7.28993e-14
-6.09571e-12
-9.91931e-12
5.56427e-12
-5.95753e-13
-5.80303e-12
-7.80943e-12
-1.01783e-12
2.02611e-12
1.73697e-12
-2.90952e-13
-8.54968e-12
-3.57227e-12
1.48958e-13
0
5.95234e-12
-5.89341e-12
7.26523e-13
6.07107e-12
-4.48079e-12
4.64864e-12
-4.41957e-13
1.33957e-12
-4.02132e-12
-1.25678e-13
2.74382e-12
-6.08854e-12
-2.98077e-13
5.17505e-12
2.09419e-13
4.86562e-12
-8.36571e-12
1.88977e-12
-6.31025e-12
2.23237e-13
1.19158e-12
3.36234e-13
-1.39957e-12
1.31731e-11
1.82152e-12
-2.88313e-13
5.61624e-12
-2.11366e-12
3.93762e-12
5.61436e-12
2.07921e-13
-1.16219e-12
-6.90671e-12
6.10539e-12
-8.05288e-14
-5.03852e-13
5.89732e-13
1.64861e-11
-4.21164e-13
-4.89846e-13
8.09648e-15
1.48919e-11
-8.80499e-12
-4.87733e-12
-9.53542e-13
-5.47418e-13
1.16822e-11
-5.34179e-13
8.17322e-13
-8.71151e-12
-2.94263e-13
9.68523e-12
-5.54477e-12
4.15578e-13
9.4018e-13
3.52653e-13
2.11644e-11
1.53356e-12
-7.68862e-12
-1.1372e-11
-2.33518e-12
1.2423e-12
4.44504e-12
-1.04988e-13
3.12738e-12
2.97563e-13
-1.76748e-12
1.59788e-12
1.73433e-12
2.31275e-12
-8.71871e-13
7.21937e-12
-8.92898e-13
4.46822e-12
0
5.95208e-13
1.47324e-12
4.5037e-12
1.44516e-13
-1.44507e-13
-7.55265e-12
4.71368e-12
1.04181e-12
-4.46793e-13
5.58469e-13
7.79856e-13
-2.68727e-12
-8.52918e-14
-9.02976e-12
-1.33822e-14
-9.89513e-13
4.74387e-12
-1.93663e-12
-1.83384e-13
-3.49605e-12
0
-3.26827e-12
4.01716e-13
1.37976e-11
1.57017e-11
-1.98197e-12
7.20131e-13
-3.02003e-13
-4.96015e-12
-1.15167e-13
7.72487e-13
2.90591e-12
1.1812e-13
-4.09299e-12
3.39297e-12
-8.76106e-12
2.06472e-11
-4.72829e-13
4.75097e-12
1.04428e-13
6.34808e-12
5.07893e-13
1.49839e-13
3.94926e-12
-4.78282e-12
1.90628e-12
1.43515e-12
1.37329e-13
6.21335e-13
-1.04168e-13
0
-1.47749e-11
7.2945e-13
-4.91763e-12
5.02826e-12
3.69579e-15
-2.19094e-12
7.41334e-12
-1.24558e-12
7.34117e-13
2.91805e-13
6.46887e-13
-4.37241e-13
-1.01774e-12
1.4891e-13
-1.48773e-13
7.51066e-12
5.51855e-12
-6.64654e-12
1.44497e-12
-1.59766e-12
-2.94576e-13
-1.488e-13
4.17008e-12
4.46681e-13
-1.63688e-12
0
-2.90671e-13
-2.89151e-13
-1.59022e-12
1.16227e-12
-1.0312e-12
6.39958e-12
3.42544e-12
4.70392e-13
6.09361e-13
3.50286e-12
8.67919e-12
-2.6393e-13
2.64927e-12
9.13109e-13
1.37918e-12
3.12023e-12
-3.07193e-13
4.79817e-12
2.97772e-13
-1.71114e-11
-1.17284e-11
-1.86966e-11
2.82778e-13
-3.84303e-12
-1.72859e-11
1.11724e-11
-2.0655e-13
3.91416e-12
5.18433e-13
-1.68516e-11
-2.12273e-11
4.00593e-12
-4.7713e-12
6.32269e-12
-2.94938e-12
1.14489e-11
-9.7333e-14
-3.41748e-12
1.26112e-12
1.62329e-11
9.2655e-13
-1.18743e-14
-1.1751e-13
-7.99899e-12
2.81878e-13
-9.7272e-13
5.27836e-14
4.25959e-14
-7.75232e-13
-3.7323e-13
-7.20888e-12
-2.46294e-13
-7.69707e-14
-8.55776e-13
-8.25624e-12
-2.97983e-12
-4.90804e-12
-5.87161e-13
-9.62833e-12
-5.56339e-12
7.25007e-12
-5.05787e-12
-1.4891e-13
-4.46322e-13
2.06196e-12
1.59791e-12
1.44547e-12
0
1.59796e-12
-4.41876e-13
-1.48802e-13
-4.61697e-12
0
0
-2.94827e-13
2.91028e-13
1.01382e-12
-1.15858e-12
1.4547e-13
1.47381e-12
1.19072e-12
1.48946e-13
-5.95644e-15
5.67092e-13
4.0234e-12
-8.53533e-12
-2.22361e-12
-8.92521e-13
-8.17122e-14
1.06847e-12
8.91942e-12
-8.19633e-14
-4.11271e-12
1.98467e-13
1.68248e-12
-7.01413e-12
1.97534e-13
-6.01967e-12
3.29124e-13
-6.76688e-12
-8.14643e-12
-4.40093e-12
-3.96503e-13
2.20707e-13
-4.11462e-11
3.51613e-13
7.81271e-15
4.29777e-12
-4.07025e-13
-1.77006e-11
4.46847e-14
1.25637e-12
2.84419e-13
-2.50787e-13
-1.3248e-13
-2.21086e-13
1.39014e-13
-4.69807e-12
1.66434e-12
-6.83467e-13
-3.41524e-14
3.18679e-12
-4.89456e-14
2.09561e-13
4.80821e-12
-1.28634e-11
-1.86519e-13
4.46727e-12
-2.02886e-13
6.71687e-12
-7.98583e-13
-7.68109e-12
4.76381e-12
3.93443e-12
1.02406e-12
1.38143e-11
-5.15014e-12
1.48925e-13
8.92728e-13
8.84103e-13
5.81811e-13
-3.62008e-12
-5.21295e-12
7.27251e-13
0
-1.19056e-12
-5.06434e-12
-4.31904e-12
2.97705e-13
-2.95036e-13
0
0
-7.26175e-13
2.91569e-13
1.47512e-13
-5.06216e-12
2.97947e-13
-2.82029e-12
3.37595e-14
8.30922e-14
4.1011e-13
-3.80113e-13
-1.16005e-12
-2.33813e-12
-5.49265e-13
8.80828e-13
-1.66955e-13
4.4184e-12
8.92472e-13
-2.07409e-11
-8.38201e-12
1.62106e-11
1.93746e-12
3.4809e-12
-1.01748e-11
-1.21351e-11
-4.73315e-13
2.08043e-12
-3.52253e-13
7.51374e-13
2.83695e-12
-3.3882e-14
-3.55831e-13
-9.4136e-12
-4.10308e-13
5.30572e-13
4.66506e-13
6.38801e-13
9.08199e-12
-1.60456e-11
-8.99607e-14
2.11167e-13
4.61033e-13
4.56215e-13
-3.75836e-14
9.74906e-12
-4.37023e-13
6.65868e-13
4.98212e-13
-1.88274e-12
-1.04939e-11
5.58865e-14
-1.58354e-13
2.24552e-13
-1.20691e-12
4.22504e-12
-9.58083e-13
1.91955e-12
-1.76188e-12
3.87117e-12
4.8279e-13
7.0607e-15
-5.9584e-13
7.442e-12
2.94972e-13
-4.22735e-12
-2.03301e-12
0
1.45759e-12
5.45673e-12
2.97737e-12
-2.97966e-13
3.72382e-12
1.48879e-13
1.47521e-13
-1.45701e-13
1.88589e-12
-1.45065e-12
-1.45683e-13
3.39273e-12
-1.34016e-12
2.83073e-12
-6.75897e-14
2.31381e-13
-7.47673e-12
1.0887e-11
2.54293e-13
2.54896e-13
2.13357e-13
-3.8595e-12
-1.68722e-13
3.64071e-12
1.40193e-12
2.97807e-13
1.2185e-11
-7.42018e-12
-1.13203e-11
1.31254e-11
-3.12468e-12
1.16243e-11
7.26432e-12
3.95766e-13
-5.39873e-13
6.81009e-12
-1.58103e-12
-3.57299e-13
-3.52043e-13
-5.86424e-12
-6.50749e-12
-2.73464e-12
-6.51329e-12
5.71934e-12
8.24468e-14
-3.45517e-13
1.40616e-11
-7.40623e-13
-6.28637e-13
-1.40848e-13
-1.88638e-13
2.39463e-13
1.74952e-14
-5.6888e-12
4.653e-13
0
-5.06703e-13
0
8.04838e-13
2.16662e-13
3.37366e-13
1.83911e-12
-3.28244e-12
3.98018e-12
-4.13459e-12
2.34956e-12
8.05353e-13
1.31584e-13
7.87992e-14
-1.48979e-13
-4.16827e-12
-4.42413e-12
1.89344e-12
-7.25208e-13
0
-1.16516e-12
1.47472e-13
1.34006e-12
-1.49003e-13
6.10697e-12
1.04198e-12
-2.06387e-12
-4.9444e-12
-3.47251e-12
-3.61722e-12
4.36263e-12
-8.2552e-12
4.46626e-13
0
-2.74689e-14
-7.29237e-13
-6.69723e-13
2.47886e-12
1.97465e-12
1.29566e-11
2.61521e-12
6.85042e-12
3.44384e-12
6.97526e-13
-6.2268e-12
8.9366e-13
-8.85359e-14
-9.56922e-13
2.87721e-12
-1.32775e-11
-3.11123e-12
-2.22909e-11
-3.01964e-13
6.50433e-14
-4.50261e-13
-4.96108e-13
-1.10046e-11
3.78522e-12
-7.49249e-13
-4.25999e-12
2.73739e-13
-3.68269e-13
-1.21923e-11
3.5154e-12
4.13425e-13
-3.33585e-13
-2.13491e-12
8.60192e-12
-3.24941e-13
-9.37297e-14
3.53522e-14
-1.34199e-12
1.44019e-13
-9.03715e-12
2.28613e-13
4.28145e-13
9.88774e-14
-5.26693e-12
-4.48709e-12
4.03967e-12
-7.80154e-12
3.51036e-12
4.35708e-12
2.41423e-12
-3.44472e-12
-1.38444e-12
8.43006e-12
6.76876e-12
5.76552e-12
1.48969e-13
1.48836e-12
-1.47355e-12
-8.28564e-12
-1.44661e-13
3.03789e-12
-1.59899e-12
-2.79987e-12
0
4.91696e-12
1.48964e-13
1.48847e-13
-5.5998e-12
6.53957e-12
1.44573e-13
2.02408e-12
-1.30803e-12
4.27398e-12
1.19097e-12
4.46931e-13
1.34006e-13
-1.9236e-14
-4.35508e-12
1.14595e-11
2.91445e-13
3.85272e-12
6.52396e-13
-6.92571e-12
7.78452e-12
3.88933e-12
-1.07343e-13
5.95523e-13
-8.08575e-12
-9.69208e-12
1.86745e-12
-1.57305e-11
6.51937e-12
2.9787e-11
-6.64561e-12
-3.58515e-13
2.78135e-14
-3.60187e-13
-1.15976e-12
1.47635e-14
-3.99241e-12
-1.06449e-13
-4.58746e-13
1.29754e-11
-7.33945e-12
9.92408e-14
-4.16448e-12
8.54293e-13
2.22813e-11
7.68884e-12
-5.45652e-12
-5.50751e-14
-2.12867e-13
1.60017e-12
-1.92599e-13
-3.27063e-12
4.52503e-12
3.18967e-13
1.84347e-12
-2.33276e-13
5.50983e-12
-1.14005e-13
8.1649e-13
-7.47116e-12
-8.57663e-12
2.49067e-12
3.66976e-13
-5.03313e-12
8.98649e-13
-7.57841e-13
3.41908e-12
0
-8.92979e-13
3.38844e-12
2.03394e-12
7.66113e-12
-7.22748e-13
5.23011e-12
6.77707e-12
1.48863e-12
-1.49011e-13
-4.47065e-13
-2.08459e-12
1.62145e-12
1.45375e-13
1.44649e-13
-6.79885e-12
2.90812e-13
2.65375e-12
4.46746e-13
5.36491e-12
3.54596e-12
-2.78881e-13
-3.11512e-12
-3.36864e-13
-6.33555e-12
-1.58929e-12
2.41001e-12
-2.21007e-12
9.19552e-12
1.45095e-13
8.36348e-12
0
-1.81883e-12
-1.99312e-12
4.72699e-12
-1.73164e-11
1.90261e-12
4.17601e-12
-1.75189e-11
-4.82618e-12
4.20527e-13
-1.80067e-13
0
8.53027e-12
1.75303e-13
-4.0698e-12
7.28252e-13
5.89879e-13
-2.29583e-13
3.13942e-12
-2.82535e-13
-7.85911e-13
5.77452e-12
5.35989e-13
-2.07953e-13
1.34059e-13
5.53689e-14
1.99146e-11
-8.54811e-13
9.50385e-13
3.12161e-13
-7.1021e-12
1.90202e-12
1.17092e-12
6.96811e-12
-6.99449e-14
1.62753e-11
-1.38068e-12
3.19824e-12
5.56791e-12
-9.68917e-12
-5.10643e-12
1.1385e-12
-1.8942e-13
-4.51881e-12
0
-4.16845e-12
-4.56871e-12
-1.16282e-12
5.49593e-12
2.89258e-12
1.01744e-12
-1.47378e-13
-6.25412e-12
-7.0061e-12
0
-5.96134e-12
1.47619e-12
7.2858e-13
-1.16052e-12
1.88597e-12
-1.45758e-13
1.18123e-12
0
4.02655e-12
3.79717e-12
-4.08583e-12
-1.62383e-13
1.58669e-13
-6.14162e-13
5.41928e-13
-8.86462e-13
-5.82351e-12
-4.28919e-13
4.32981e-12
-1.61468e-14
1.01299e-11
-2.16379e-12
-3.16168e-12
-7.1117e-14
1.04201e-11
1.11364e-12
1.45272e-11
1.50992e-12
-1.75842e-13
1.58635e-12
-1.00441e-11
-1.27518e-11
-1.47515e-13
4.61746e-12
-2.80969e-13
3.76359e-13
-2.11706e-13
8.98337e-12
-6.36164e-13
-1.02299e-11
-1.26283e-14
1.66647e-11
-9.97668e-12
-8.7479e-12
3.40486e-13
-5.35097e-14
5.52848e-13
2.73538e-14
2.64197e-12
5.76639e-12
-1.18763e-11
3.95537e-13
6.35898e-13
1.19023e-11
1.00246e-13
1.01335e-13
-7.11685e-12
-2.68692e-12
-1.10485e-11
4.54489e-12
-1.23877e-12
-8.44823e-12
-2.52335e-13
-1.6488e-12
-5.96477e-13
2.23504e-12
-1.91876e-12
1.1656e-12
1.45048e-13
-2.03066e-12
2.91388e-13
2.21387e-12
2.53361e-12
-7.3095e-12
2.98535e-13
1.34341e-12
0
1.32111e-12
-1.46364e-12
-2.92744e-13
-4.40469e-13
-1.63037e-12
-1.64191e-12
2.98515e-13
1.56975e-13
1.01148e-11
-1.30631e-12
8.79528e-12
2.51903e-12
-1.12482e-12
3.22412e-13
-3.83577e-12
-4.52229e-12
4.8995e-12
-3.15782e-12
-1.06931e-11
5.36861e-13
-1.10925e-11
-5.50996e-12
4.37756e-12
2.51477e-13
1.14766e-12
-2.11115e-12
4.66908e-12
-1.23486e-12
1.09205e-11
1.4455e-11
5.84499e-12
-3.78407e-14
3.09964e-12
-2.11622e-11
-6.26861e-13
-6.75214e-12
7.96647e-14
6.85303e-13
1.11918e-11
-2.29504e-11
6.6694e-12
2.4036e-13
5.47154e-13
2.77894e-13
3.05206e-11
3.30932e-13
-2.15074e-13
-3.7477e-12
8.6446e-14
4.43916e-13
9.39101e-12
6.70213e-14
3.20222e-12
9.67446e-12
-1.29257e-11
-7.68391e-12
0
-3.219e-12
7.27869e-14
8.19469e-13
-2.21307e-12
-6.52479e-14
7.16346e-12
-1.49227e-12
1.03725e-12
8.07276e-12
-1.75618e-12
-1.46347e-13
-1.61447e-12
2.96337e-13
2.08963e-12
0
0
-1.19452e-12
-6.99486e-12
-1.4822e-13
2.073e-12
0
4.89178e-12
4.465e-13
1.94097e-12
-1.49211e-13
-1.76173e-13
5.68657e-13
-4.81317e-12
-2.50959e-13
-1.95162e-12
-1.08985e-12
1.08551e-11
7.26809e-12
4.75583e-12
3.64688e-12
-3.30637e-12
8.96191e-13
-1.39862e-13
2.20804e-12
-3.2934e-12
9.73804e-12
4.93685e-12
-9.28695e-12
-4.53552e-12
1.5054e-13
-1.39116e-13
-7.51125e-14
-2.06807e-12
6.99168e-12
-3.62651e-12
-2.85958e-12
6.169e-12
-1.938e-11
-7.62442e-12
4.03627e-12
-4.17029e-13
-8.83365e-12
1.04722e-11
6.41832e-12
1.1644e-13
5.82467e-12
1.67386e-12
-1.72908e-11
2.54743e-12
-4.7456e-12
-4.40646e-12
-4.30079e-13
2.33276e-12
-8.73765e-12
-4.443e-12
7.60761e-13
5.75312e-14
0
1.68187e-12
4.98275e-12
-5.80089e-12
2.01739e-13
-3.56339e-12
-1.10693e-13
7.66237e-13
4.47562e-12
0
-4.9101e-12
0
1.48054e-13
-8.88313e-13
0
2.97592e-13
1.04504e-12
4.32774e-12
3.42438e-12
7.89085e-12
1.04025e-11
1.63177e-12
1.33454e-12
2.07611e-12
1.18678e-12
-5.49828e-12
-1.3399e-12
-3.27508e-12
3.93107e-12
1.20992e-11
4.54037e-12
1.67998e-13
-2.96567e-12
-4.09203e-13
-3.8477e-12
-8.57268e-12
1.59171e-13
3.48326e-12
-9.66528e-14
7.31398e-14
-1.083e-11
-5.15004e-12
5.64375e-12
-1.29148e-11
2.7823e-12
4.09301e-12
2.97139e-13
3.24713e-12
1.83923e-13
-2.96371e-13
1.00361e-11
1.08661e-11
-2.9624e-12
-1.35119e-11
-1.2655e-11
1.88973e-11
-5.74103e-13
1.03449e-12
-9.5445e-14
6.82481e-12
-9.79177e-13
-9.24248e-12
5.79253e-12
8.28113e-12
7.05868e-12
1.41456e-11
7.65707e-12
4.3153e-13
6.41974e-14
-7.75404e-12
2.89612e-13
-8.39998e-12
-6.18104e-12
-2.87618e-13
-1.26449e-11
-1.85746e-11
-7.85606e-12
-4.46819e-12
1.53729e-12
5.17333e-13
-1.05116e-11
1.69765e-11
0
-1.03128e-11
1.28005e-11
7.12054e-13
-7.84668e-12
1.37545e-12
-3.89885e-13
-1.05427e-11
1.52727e-11
-9.086e-12
1.41749e-11
1.64972e-11
2.01034e-11
-9.6167e-13
8.7875e-12
-1.96848e-13
-1.64279e-12
2.17609e-12
-7.63938e-12
-5.85253e-12
-2.52473e-12
-1.67266e-11
9.05178e-12
-5.19815e-14
-3.00538e-13
-1.68678e-12
-1.48846e-13
1.48832e-13
-1.18853e-12
1.92825e-12
7.56167e-12
-5.93095e-13
7.11956e-12
1.18863e-12
-1.04197e-12
0
4.45413e-13
4.45129e-12
-2.37072e-12
0
6.07038e-12
9.0272e-12
-5.03257e-12
-7.85668e-12
-9.64495e-12
-8.46212e-12
-2.72622e-13
1.20279e-13
7.45935e-12
-1.08896e-12
5.21324e-12
8.11664e-13
1.57071e-12
-6.22838e-12
-3.66677e-12
-4.19393e-12
-6.57253e-13
-4.39508e-12
4.5893e-12
4.06112e-13
-1.15904e-11
-3.60523e-12
4.26631e-12
2.89657e-13
6.04403e-12
1.11219e-13
1.88779e-13
-1.61484e-13
8.16109e-12
-1.03199e-14
1.01487e-11
-1.68033e-13
1.06503e-11
-4.18303e-13
6.20295e-13
3.36843e-13
-4.47329e-12
2.61319e-13
-9.11948e-12
6.30372e-12
2.46922e-12
-1.42053e-12
-1.95225e-11
-1.29457e-12
4.18745e-12
3.76532e-12
7.36316e-14
4.59392e-12
3.73421e-13
-5.86152e-12
1.72106e-12
1.30846e-12
9.24573e-12
8.82313e-13
-1.31187e-13
1.52897e-14
8.93106e-12
-1.51224e-12
-3.92242e-13
-2.58999e-12
-6.84546e-12
9.76508e-13
-8.65755e-13
2.90154e-13
-5.67862e-12
2.78543e-13
1.30284e-15
-6.67306e-12
3.49208e-13
7.31521e-12
-8.23112e-12
-1.17674e-12
1.39499e-12
1.70273e-13
-3.57649e-13
2.73778e-13
-8.96399e-12
1.48101e-12
-4.18362e-14
1.33634e-12
7.99338e-12
-1.43866e-12
5.53142e-13
-2.69541e-12
-7.70027e-12
1.46603e-12
-4.30491e-12
0
-3.85345e-12
-3.40406e-12
5.03361e-12
4.43925e-12
2.95997e-13
3.85193e-12
1.03852e-12
1.18771e-12
-1.18562e-12
-4.44367e-13
0
2.66282e-12
0
1.47916e-13
-1.47938e-13
-1.48023e-13
-5.92489e-13
-5.92785e-13
2.05126e-12
-4.6892e-13
1.3001e-13
2.76422e-12
-3.80126e-14
4.58468e-12
8.19464e-14
-3.45119e-12
-6.90278e-13
-5.91183e-13
-3.5899e-12
3.95255e-12
-8.16195e-14
-2.67281e-12
-4.98249e-12
-1.16805e-13
9.65984e-14
-4.71128e-14
3.65427e-13
-4.41352e-14
-3.25768e-12
-5.11928e-12
3.67316e-15
-1.70192e-14
6.3652e-13
-4.68535e-12
-1.55384e-13
2.99169e-12
-4.65769e-12
-1.29971e-13
3.73582e-12
-3.29653e-12
-4.70892e-12
2.92734e-12
5.0092e-12
3.83255e-13
-3.22418e-12
1.28475e-13
-2.10994e-13
1.20187e-13
7.71371e-14
5.17371e-12
-5.4671e-12
-8.53407e-14
-1.17123e-12
5.43187e-14
3.45674e-12
5.80982e-13
4.8614e-12
9.624e-14
3.65544e-12
-4.70997e-13
4.46456e-12
-6.63063e-15
-9.83391e-14
-1.602e-13
-2.06591e-12
-3.75368e-13
-8.35664e-14
7.33331e-14
-2.21099e-13
-6.19738e-14
6.00309e-12
4.10397e-12
6.36537e-13
-6.03827e-13
2.29871e-12
2.43688e-13
2.63348e-13
5.05076e-13
-3.4143e-12
5.49129e-15
-4.11447e-13
-4.18322e-15
-8.61365e-14
1.05121e-13
5.93706e-12
-4.5025e-14
-2.12049e-13
-3.13801e-13
-1.48188e-13
-1.48109e-13
-7.40029e-13
-4.14193e-12
1.47915e-13
1.47906e-13
-4.88144e-12
-4.43998e-13
0
-2.96396e-13
0
1.48005e-13
-3.84661e-12
3.54976e-12
-2.95791e-13
-1.47896e-13
3.25402e-12
3.84675e-12
5.92028e-13
1.48051e-13
-3.45818e-12
-2.81872e-14
-3.39622e-12
-2.87001e-13
-2.03783e-13
-2.22479e-13
1.11454e-13
2.46247e-13
-2.80984e-12
3.14069e-13
-3.47933e-12
-2.94024e-14
3.76758e-13
-7.6986e-12
-2.98564e-12
-3.3375e-12
-6.62644e-12
-4.7939e-12
2.35222e-13
-1.05533e-14
3.91296e-12
-3.77475e-12
-3.83113e-12
-9.70793e-14
4.47224e-12
6.5454e-12
-4.48143e-13
2.67478e-12
3.48744e-12
1.27934e-12
3.60427e-12
2.59644e-14
-1.59156e-13
4.51657e-12
3.51989e-12
3.61073e-12
3.15034e-12
5.66257e-12
6.39372e-14
-5.16008e-13
-6.66943e-13
-9.9564e-13
6.98407e-13
1.89166e-13
-4.79672e-12
-1.07141e-11
-4.05996e-12
1.13625e-12
-3.76761e-12
-1.00223e-12
-1.90803e-13
1.21178e-13
1.02443e-13
-9.40372e-14
2.86887e-13
-6.3752e-13
-3.38131e-13
-1.16166e-12
1.7436e-13
3.81903e-12
5.3617e-14
1.67003e-13
-8.93676e-13
-9.52382e-15
5.0815e-12
5.56693e-12
4.80419e-12
-1.88277e-13
3.72126e-12
-8.25202e-14
5.22382e-14
-2.84504e-14
-8.99572e-13
9.28943e-14
-8.02544e-13
-4.02206e-12
-3.82135e-13
-4.55904e-12
5.76992e-12
-3.42883e-12
-1.48043e-13
4.4399e-12
3.69847e-12
-2.95797e-13
-5.02819e-12
-4.28874e-12
-4.437e-13
-4.14235e-12
5.62408e-12
0
-8.28632e-12
-4.73426e-12
7.3958e-13
0
5.91557e-13
-4.28882e-12
0
5.91681e-13
3.25488e-12
2.95944e-13
-7.62411e-12
-3.85884e-12
1.99395e-13
-3.60394e-12
-3.14408e-12
-2.94753e-12
-2.0228e-13
5.21419e-12
3.31385e-13
3.89282e-13
3.75898e-12
4.87871e-12
-5.91597e-13
-5.8767e-13
-4.65261e-12
-9.9875e-13
1.90244e-14
2.51846e-13
-3.47103e-12
5.40958e-13
-6.60002e-13
4.04869e-12
-3.54495e-13
3.24089e-12
-1.18772e-12
3.52306e-12
-2.56277e-13
-8.69863e-12
2.86975e-12
3.30999e-12
1.23474e-12
4.50863e-12
-5.15926e-14
-1.81994e-14
4.71448e-12
5.39206e-12
-2.12533e-14
-1.3897e-13
2.89396e-13
2.68138e-12
4.83338e-12
1.91045e-13
4.42186e-12
2.66398e-13
4.14869e-12
-1.15659e-13
-4.25174e-13
3.92319e-12
1.07435e-12
-3.33747e-12
-3.41585e-13
-4.59602e-12
-1.739e-13
-3.58482e-14
-4.97121e-12
-1.35434e-12
4.62873e-14
-8.02125e-13
-3.84643e-13
-3.30611e-12
2.39325e-13
-1.65627e-13
-3.9783e-12
1.14423e-13
6.39644e-13
8.52741e-14
2.28796e-13
2.2006e-13
-8.48525e-12
-2.48501e-15
-1.78021e-13
2.46167e-13
-2.05921e-13
-9.07357e-14
4.51936e-12
1.11905e-12
2.9318e-12
4.94726e-13
6.0923e-13
1.97012e-14
0
4.43819e-13
1.4791e-13
2.95779e-13
0
0
2.80996e-12
0
3.84659e-12
2.95943e-13
-3.47638e-12
-6.65729e-13
7.39659e-14
-3.69593e-13
2.66181e-12
-3.40124e-12
-5.17485e-13
-7.39032e-14
-2.2181e-13
7.37721e-14
-3.32717e-12
-1.40432e-12
7.39413e-14
-3.62332e-12
-8.87269e-13
-4.43678e-12
-4.06742e-12
-7.3885e-14
7.42186e-14
2.22501e-13
2.21045e-13
5.16808e-13
-2.95708e-13
3.34868e-16
-3.99306e-12
3.25372e-12
5.91776e-13
-1.47773e-13
-3.70194e-13
-7.46724e-14
7.42159e-14
5.17667e-13
0
3.54948e-12
-3.99388e-12
4.43827e-12