/*--------------------------------*- C++ -*----------------------------------*\
  =========                 |
  \\      /  F ield         | OpenFOAM: The Open Source CFD Toolbox
   \\    /   O peration     | Website:  https://openfoam.org
    \\  /    A nd           | Version:  10
     \\/     M anipulation  |
\*---------------------------------------------------------------------------*/
FoamFile
{
    format      ascii;
    class       volScalarField;
    location    "0.2";
    object      gradTz;
}
// * * * * * * * * * * * * * * * * * * * * * * * * * * * * * * * * * * * * * //

dimensions      [0 -1 0 1 0 0 0];

internalField   nonuniform List<scalar> 
47104
(
5.96396e-13
7.45367e-13
4.46795e-13
-3.71779e-12
1.48558e-13
0
-1.4871e-13
-1.48928e-13
-4.47202e-13
-1.49091e-13
-2.9813e-13
-1.48935e-13
-8.7664e-12
-4.44061e-12
1.03349e-12
-1.47641e-13
7.40096e-13
4.01168e-12
-5.80827e-12
4.91892e-12
-4.61644e-12
2.9715e-13
1.47716e-12
-5.70699e-12
-1.45444e-13
-1.59988e-12
1.75599e-12
1.47714e-13
-2.97142e-13
-1.04238e-12
-5.20443e-12
-8.88062e-13
0
-1.87153e-12
-3.70485e-12
4.13233e-12
-2.87925e-13
1.02429e-12
-5.32823e-12
-5.94767e-12
2.97099e-13
0
2.32704e-12
1.28244e-12
1.40674e-13
-1.12539e-12
-7.12459e-13
0
2.95259e-13
-5.79314e-12
-4.75378e-12
0
-2.03618e-12
1.42493e-13
8.44038e-13
1.40673e-13
-1.99488e-12
-1.45438e-13
-1.122e-11
-4.6049e-12
-4.46139e-12
2.22031e-12
-2.19497e-12
-5.32655e-12
4.70217e-12
5.6996e-13
0
2.19491e-12
-9.32473e-12
5.0558e-12
0
-5.94332e-13
2.3634e-12
1.60955e-12
1.11983e-11
-2.90868e-13
1.46325e-13
-4.43135e-13
1.48576e-13
-7.44609e-13
0
4.91471e-12
4.60559e-12
-7.4e-13
-2.95246e-13
-5.90501e-13
-8.88035e-13
-6.83433e-12
-2.9786e-13
-1.01365e-11
0
-2.98113e-13
-7.44526e-13
-4.4605e-13
1.48533e-13
-2.22804e-12
-5.05551e-12
7.44574e-13
4.76999e-12
-1.49094e-13
5.58629e-13
8.76985e-13
6.57056e-12
4.32758e-12
-1.1265e-13
4.84061e-13
0
0
-5.97376e-13
-3.17536e-13
-1.91505e-14
-1.72077e-12
4.84315e-12
1.28303e-12
-1.1582e-12
-7.26995e-13
-8.27996e-12
-2.02112e-12
3.62845e-12
4.75933e-12
-4.32989e-12
3.85193e-13
-3.87364e-12
-6.22781e-12
0
2.95676e-13
-1.00615e-11
5.94152e-13
-2.10508e-12
-7.46501e-13
-4.62541e-12
9.32427e-13
-1.51239e-11
-2.63504e-12
3.4875e-12
-3.19404e-12
5.82403e-13
1.03117e-11
5.31365e-12
-4.47603e-13
0
1.54316e-12
-1.18314e-12
0
-1.12117e-11
-2.87092e-13
-8.0739e-12
-2.93228e-13
-1.26999e-13
1.49159e-13
-2.98352e-13
2.27941e-13
5.91341e-13
5.80729e-13
-1.2632e-11
-8.60039e-13
-5.76003e-12
1.08429e-11
-2.90263e-12
0
4.47698e-13
-9.5277e-12
2.95927e-12
8.73597e-13
-3.74856e-12
8.63998e-13
1.04087e-11
0
-4.72305e-12
-2.98429e-13
1.49339e-13
-2.39254e-12
-1.1883e-12
-5.89227e-13
-6.45087e-12
2.93044e-13
2.93557e-13
2.95743e-13
1.94503e-13
-7.46597e-13
2.98711e-13
-1.57111e-12
-9.31803e-13
-5.14427e-12
-1.42555e-12
3.80862e-12
-1.02281e-12
-2.94918e-12
-2.24443e-12
-5.37639e-12
-1.9143e-14
-5.54418e-12
5.82234e-12
1.4919e-13
-2.6184e-13
5.83514e-12
-7.64202e-13
7.46544e-13
4.66773e-12
3.82396e-14
5.26049e-12
1.33825e-13
2.54485e-12
4.21649e-12
1.47399e-14
-6.84337e-12
-5.47561e-13
4.27984e-12
4.29145e-13
1.94487e-14
-2.20571e-13
6.86288e-12
7.46989e-12
2.69156e-12
-8.99247e-12
1.49957e-12
-1.25736e-11
-6.86934e-12
8.05712e-12
-5.41394e-12
3.65071e-12
1.22491e-11
3.32985e-12
-2.11907e-12
-1.52208e-12
-4.26903e-12
5.76703e-12
-4.53831e-12
-1.08124e-11
9.88638e-14
1.24973e-13
2.99028e-13
1.48331e-11
5.07955e-07
4.81035e-07
4.89258e-07
4.50038e-07
2.79817e-09
3.61457e-12
3.65596e-13
-4.10689e-13
0
-5.17496e-12
4.80959e-07
-1.48149e-07
-1.53152e-07
-1.12003e-07
1.46965e-10
1.21025e-12
5.53222e-12
-3.89184e-13
-5.99818e-13
2.13449e-12
4.89242e-07
-1.53147e-07
-1.58606e-07
-1.15026e-07
1.45506e-11
8.17832e-12
4.23156e-12
4.75689e-12
-4.79005e-12
7.58818e-12
4.50058e-07
-1.12023e-07
-1.15029e-07
-8.55901e-08
1.11142e-09
6.64276e-12
-4.86305e-12
4.63556e-12
1.25446e-11
-7.86626e-12
2.81733e-09
1.67703e-10
2.34589e-11
1.11288e-09
-3.78666e-10
1.50319e-12
-3.13855e-13
1.25456e-13
-6.56541e-12
3.0033e-13
4.21676e-12
9.07651e-13
1.21155e-12
4.52892e-12
-2.70562e-12
1.017e-11
4.9493e-12
1.68665e-13
-7.45555e-13
5.68998e-12
4.88775e-13
4.29462e-12
7.41603e-12
4.7272e-12
-9.42475e-14
5.69956e-12
4.0866e-13
2.97698e-13
-3.43013e-13
-6.29283e-12
-5.15202e-12
-5.09324e-14
-4.95594e-13
1.69924e-13
-5.01042e-12
3.35106e-13
0
-5.90164e-12
-1.15861e-11
7.38969e-13
-2.26885e-11
-1.74601e-11
-2.78434e-11
-3.57341e-11
-6.18199e-12
-1.03879e-11
-4.27156e-12
-1.71509e-12
-2.34206e-12
1.48484e-10
-4.76092e-07
-3.4448e-07
-3.35628e-07
-3.52788e-07
-4.12352e-07
1.32586e-10
-7.17544e-12
9.5692e-14
-2.06246e-11
-4.75941e-07
-225.322
-294.042
-294.679
-293.145
-0.0014454
1.50809e-09
-2.34353e-13
7.83978e-14
-1.98269e-11
-3.44372e-07
-294.041
-407.591
-409.1
-405.277
-0.168633
-4.06421e-09
8.72631e-13
1.29913e-13
-2.90282e-11
-3.35664e-07
-294.679
-409.1
-410.692
-406.707
-0.169435
-3.56938e-09
7.96324e-12
-8.51173e-14
-1.74251e-11
-3.53203e-07
-293.145
-405.277
-406.707
-403.058
-0.168967
-5.27521e-09
5.44397e-14
9.70674e-14
-1.64857e-11
-4.10931e-07
-0.00146345
-0.16864
-0.169438
-0.16897
0.0302929
-1.30528e-09
3.66258e-13
-4.91412e-14
2.96842e-13
1.08672e-10
1.49622e-09
-4.08472e-09
-3.60184e-09
-5.51785e-09
-1.24724e-09
-9.52144e-12
-1.16487e-13
-2.97683e-13
5.57068e-12
-6.0155e-12
1.33495e-13
-4.38636e-12
-5.24152e-13
8.12901e-12
-2.49756e-13
6.24954e-12
0
-5.05462e-12
2.77937e-12
-1.90709e-12
-1.07874e-13
1.87495e-13
6.81053e-12
1.15982e-13
-3.98399e-12
-7.42217e-13
-1.93698e-14
-4.32029e-12
-1.48218e-12
-1.75297e-13
-6.08569e-12
2.27873e-10
2.14687e-10
2.48133e-10
-7.3759e-13
1.06638e-11
6.06831e-12
2.24407e-13
-1.17241e-11
6.3663e-10
0.00287711
0.00563078
0.00566789
0.00555106
-7.45648e-05
4.51236e-10
5.3747e-12
-3.18071e-13
-3.18765e-12
0.00287231
4.19853e-07
1.06176e-12
-2.30695e-13
2.19169e-10
0.00562988
1.03975e-06
-2.20796e-13
5.25679e-12
2.10918e-10
0.00566656
1.05523e-06
1.36646e-12
-5.74351e-14
2.07938e-10
0.00549065
9.79494e-07
5.21417e-12
3.74384e-13
6.84074e-12
-7.34722e-05
-4.16138e-08
-4.08928e-12
4.89778e-12
2.96305e-13
4.40037e-10
4.18556e-07
1.03952e-06
1.05332e-06
9.33863e-07
-3.46194e-08
2.97986e-13
7.69603e-13
1.29189e-13
4.18246e-13
-5.57079e-12
5.53217e-12
-4.77884e-12
-1.7673e-13
3.19384e-13
9.28509e-14
-4.55708e-13
0
1.22841e-12
-3.53812e-13
3.54658e-13
2.86603e-13
-1.26428e-13
9.91233e-14
-7.45407e-14
5.1359e-12
-2.77897e-13
-1.29363e-13
5.65506e-12
2.97265e-13
-4.89103e-14
-2.04157e-12
5.07586e-11
4.23296e-11
5.09862e-11
1.11838e-11
-5.95499e-13
9.03982e-12
-9.10477e-13
5.20234e-13
-4.40996e-10
0.000110444
0.00017589
0.000171374
0.000173538
-2.07184e-06
3.5316e-11
7.40424e-12
-1.34275e-13
-7.29124e-12
0.00010175
2.7279e-08
-4.11421e-13
2.40529e-13
5.25064e-11
0.000174635
8.61022e-08
-5.86922e-12
-7.11644e-12
5.51736e-11
0.000171796
8.98788e-08
-8.13909e-12
4.9548e-13
6.76127e-11
0.000277992
7.59555e-08
-1.21166e-13
-4.86932e-13
-5.08741e-13
2.19768e-05
-2.99383e-09
6.67454e-12
3.56437e-14
2.97643e-13
5.56583e-11
2.77063e-08
8.62309e-08
9.12066e-08
1.57376e-07
-6.33915e-09
1.502e-12
2.60573e-13
-9.03989e-14
-6.39536e-12
-6.38251e-13
-5.39766e-12
1.00204e-11
5.53004e-12
-7.44788e-12
-3.9618e-12
-5.97801e-12
-1.09867e-13
-6.33856e-13
-1.26592e-11
-3.4253e-13
-1.16877e-13
-3.87731e-13
5.63971e-12
-4.80128e-12
-2.72038e-13
6.80887e-13
7.43833e-13
4.69447e-12
-2.38232e-12
-6.26488e-13
-3.80161e-12
6.14417e-12
2.07892e-11
1.84065e-11
-2.10419e-11
9.84471e-12
2.14648e-14
4.49477e-13
-2.04361e-13
-5.48282e-10
4.712e-05
5.98967e-05
5.00226e-05
6.42672e-05
-4.59761e-07
7.98788e-12
-5.63776e-12
-3.96514e-13
-1.02359e-11
-1.48674e-05
3.82863e-09
9.03963e-12
-5.18976e-13
9.65456e-12
4.68959e-05
1.27129e-08
2.45192e-13
3.06321e-13
1.259e-11
5.05506e-05
1.34892e-08
-1.301e-12
-5.74652e-12
1.05179e-11
9.06887e-05
1.10101e-08
-4.95332e-12
-4.41621e-12
-1.10196e-11
-2.10606e-06
-4.65978e-10
3.50713e-12
-4.74291e-12
-1.19321e-12
3.31543e-12
3.85631e-09
1.27535e-08
1.4217e-08
2.33699e-08
-1.75962e-09
-2.10792e-12
-3.853e-13
4.07502e-13
1.37165e-13
-4.99523e-12
-5.51766e-12
5.93481e-12
2.61209e-13
4.80689e-13
-3.30486e-14
-4.92989e-12
-3.87757e-14
-5.95434e-13
4.72225e-12
-5.19438e-13
3.40546e-14
-4.00103e-12
-6.40831e-13
1.52591e-13
-7.7287e-13
2.26211e-13
0
9.74719e-14
3.87395e-12
-4.30619e-13
-1.46315e-12
8.78336e-12
2.05102e-12
1.22787e-11
1.11465e-11
-1.94115e-11
-5.22842e-12
7.20249e-12
-9.16443e-12
-5.39229e-10
3.61258e-05
4.71066e-05
3.62865e-05
5.18473e-05
2.18807e-07
1.19778e-11
4.80227e-13
-5.91732e-14
-7.90756e-12
0.000357967
-6.82118e-10
5.53732e-13
8.58113e-14
-8.7835e-13
-7.14449e-06
-1.58165e-09
4.74622e-12
1.21129e-11
3.51581e-12
3.60597e-05
-1.69232e-09
5.66385e-12
-3.36482e-13
-1.75405e-12
5.31877e-05
-1.46089e-09
-6.8096e-13
-2.28737e-13
1.86377e-11
1.46086e-07
1.10029e-10
-6.25486e-12
1.44521e-13
-6.27124e-12
7.97421e-12
-7.5211e-10
-1.69059e-09
-3.71711e-09
-6.52607e-08
7.06755e-09
-6.0263e-13
-3.73173e-13
-1.48836e-13
5.95393e-12
3.67332e-13
6.14808e-12
-1.01133e-11
-5.4661e-12
-2.65319e-13
3.79765e-12
-5.5029e-13
-5.9548e-13
1.48904e-13
9.59048e-12
1.77145e-13
-5.8409e-12
8.38495e-14
-5.85302e-12
4.55975e-12
-3.66769e-14
6.74968e-12
-5.9559e-13
-6.8624e-12
-1.46058e-11
6.21149e-13
5.26764e-12
-1.93234e-11
-3.51595e-11
-4.18063e-11
1.30913e-12
9.85647e-12
-4.85755e-13
-6.13404e-12
1.00564e-11
-5.95073e-11
2.18229e-05
-1.48991e-05
-2.93462e-05
-6.23583e-06
9.93729e-07
-1.92534e-11
4.75492e-12
-4.71875e-12
1.69903e-11
-0.000199887
-2.48694e-08
1.37922e-12
3.75702e-13
-1.84436e-11
3.23115e-05
-8.57758e-08
1.01461e-13
-5.24873e-12
-9.96108e-12
-2.81977e-05
-8.91456e-08
-8.99596e-13
6.31317e-12
-1.84178e-11
-5.9654e-06
-7.3807e-08
3.61327e-13
4.5465e-12
1.77901e-12
8.45477e-07
1.84263e-09
3.74347e-12
-2.14362e-13
1.88166e-11
-2.55735e-11
-2.48812e-08
-8.5731e-08
-8.76954e-08
1.21292e-08
-4.2346e-09
3.01295e-13
7.16343e-15
-2.97783e-13
3.73628e-15
8.01067e-12
6.26751e-12
-5.93185e-12
3.87226e-14
-8.10722e-12
-6.72936e-12
-9.75179e-14
-1.48925e-13
-4.46784e-13
-4.29173e-12
2.98575e-13
4.8967e-12
3.55943e-12
4.87295e-12
1.34653e-13
-4.99237e-13
4.35041e-13
-2.97877e-13
2.82583e-13
1.37117e-11
-1.29121e-12
6.4183e-11
6.69186e-11
9.31127e-11
4.36614e-11
-2.09292e-12
2.98661e-13
-3.57907e-12
1.3364e-13
3.35042e-13
-7.90074e-10
-0.00185583
-0.00429458
-0.00434272
-0.00421479
3.90384e-05
-9.99054e-11
-3.85539e-13
2.4252e-13
1.99307e-11
-0.00174258
-2.14102e-07
-1.73446e-13
5.45823e-14
6.33873e-11
-0.00427946
-2.85371e-07
5.98262e-12
-4.83721e-12
7.72452e-11
-0.00434533
-2.93813e-07
-4.76832e-12
-4.92811e-12
3.1353e-11
-0.00421586
-2.86406e-07
-5.39071e-12
1.37606e-13
-1.02144e-11
3.90309e-05
2.11304e-08
-1.96308e-13
-4.93199e-13
-1.16473e-11
-8.79438e-11
-2.13953e-07
-2.8533e-07
-2.9311e-07
-2.80311e-07
1.98193e-08
-3.01167e-13
1.87283e-13
-2.9786e-13
4.92697e-13
-1.58414e-12
5.2422e-12
-6.80073e-15
1.38333e-14
3.82589e-13
3.43605e-13
-3.21996e-14
8.9377e-13
7.29752e-12
4.62581e-12
6.34981e-13
5.77861e-12
1.3082e-12
5.43091e-14
-5.7213e-14
-5.54216e-13
-6.6673e-12
1.48955e-13
1.20172e-11
-5.96154e-13
5.76372e-13
-1.2331e-11
1.47103e-12
3.00773e-14
-2.93707e-13
4.1963e-13
2.08983e-12
8.48792e-13
6.05996e-12
-1.2404e-11
6.67015e-11
1.35303e-06
8.63455e-07
8.35357e-07
8.94894e-07
1.19304e-06
2.75821e-11
-9.32125e-12
5.1146e-12
0
1.3469e-06
-1.10848e-09
-6.1937e-12
-2.40274e-13
-5.88438e-13
8.70253e-07
-1.35724e-09
-9.41881e-14
5.30649e-12
-9.72039e-12
8.54757e-07
-1.31027e-09
4.45017e-13
-3.86076e-13
1.46859e-12
9.02484e-07
-1.49709e-09
-5.2054e-12
-1.01898e-11
2.99363e-13
1.20584e-06
1.0423e-09
-1.13917e-11
1.5434e-13
-1.31354e-11
1.81904e-11
-1.10984e-09
-1.34809e-09
-1.30008e-09
-1.49205e-09
1.0566e-09
6.02208e-13
-3.01349e-13
-7.44725e-13
-5.97049e-12
-1.05333e-11
-1.09808e-11
-1.2345e-14
-1.15211e-13
7.47647e-12
1.37539e-14
-5.01606e-12
-1.48971e-13
1.48915e-13
-5.56446e-12
4.82372e-12
-4.75514e-12
-4.63456e-12
-3.91138e-12
-4.6354e-12
1.68007e-12
-7.53459e-13
-1.4895e-13
1.15641e-13
0
2.16582e-11
-2.92924e-13
-8.78809e-13
-7.03665e-12
-8.77681e-13
4.2863e-13
-1.40358e-11
-1.7701e-12
8.41272e-14
1.23043e-11
-1.22628e-12
2.26681e-11
1.17604e-12
-2.35599e-12
5.87198e-13
-7.5823e-12
-3.97292e-13
-8.50259e-12
1.08889e-13
-1.11287e-11
-2.35007e-11
1.76018e-12
-2.70376e-13
7.80729e-12
0
2.93915e-11
-1.08075e-11
-5.87892e-12
-2.26139e-13
2.93277e-13
4.12451e-12
2.84522e-11
-8.2233e-13
1.18247e-11
9.65499e-12
4.46062e-11
9.36594e-12
-5.69908e-13
-1.54877e-12
8.10919e-12
3.01702e-11
-1.47941e-12
4.80913e-13
-3.70966e-12
1.34438e-11
-3.76819e-12
1.99672e-12
9.83062e-12
-9.13512e-12
7.354e-14
1.86329e-12
0
-5.90514e-12
1.48938e-13
1.9217e-14
1.33653e-12
-4.98102e-12
5.00687e-12
6.55532e-14
-5.34719e-13
5.66324e-12
-7.24994e-13
-1.10136e-13
-7.29622e-12
-5.16728e-12
-4.59393e-13
2.5522e-13
-1.84172e-12
-3.48792e-13
4.43407e-12
-4.52489e-12
1.81865e-13
-1.93487e-14
-5.96166e-12
0
-1.99769e-11
2.92849e-12
-5.85626e-13
-1.46535e-12
5.84878e-13
-2.33638e-13
2.18038e-11
-1.04558e-12
4.64956e-13
-5.18843e-13
-1.83876e-12
4.68473e-12
2.05328e-11
5.90812e-13
2.53176e-11
1.88783e-12
-1.68994e-11
4.69494e-12
-4.5402e-12
1.17082e-11
2.59834e-13
1.41217e-13
-7.17229e-12
7.87926e-13
-2.92816e-13
5.25468e-11
-1.26838e-12
-5.37253e-12
-7.04418e-14
-2.93059e-13
1.77225e-11
-1.36533e-11
-1.17099e-12
7.31049e-13
-8.48041e-12
-2.94361e-12
1.35239e-12
4.85842e-12
-1.11606e-12
-7.6312e-12
-1.25067e-13
1.36234e-11
7.46567e-12
8.64521e-14
1.13495e-11
9.06898e-13
3.23525e-13
-9.90117e-12
1.07358e-11
-6.3425e-14
-2.24641e-12
1.71868e-13
-6.89825e-12
8.93536e-13
6.12109e-12
1.51688e-11
1.20144e-11
-7.01523e-12
-2.8238e-14
-3.02225e-13
6.87577e-12
5.00981e-12
-1.23032e-12
-7.44475e-13
5.90546e-12
-4.926e-12
2.39327e-14
6.05141e-12
2.87039e-13
4.55991e-12
-3.73677e-13
-4.63674e-12
-4.31899e-12
2.67449e-13
0
-1.1401e-12
8.78328e-12
1.23002e-11
9.0867e-12
0
-2.08663e-13
-9.55817e-12
5.24338e-12
1.43895e-13
-1.2793e-11
6.12541e-13
5.42205e-12
-1.45404e-12
-1.65475e-11
-5.88924e-13
-2.08984e-11
1.68592e-11
3.48316e-12
5.99391e-12
5.85467e-13
-2.36956e-14
3.94539e-13
-1.39553e-13
-2.77997e-12
0
6.45656e-13
-3.34785e-12
3.69703e-14
-4.86324e-14
-1.17243e-12
0
1.10159e-11
3.60571e-13
-7.19869e-12
-1.08211e-11
1.88443e-11
2.70583e-12
6.89149e-12
1.44057e-12
-1.09368e-12
2.22771e-11
-2.48944e-12
-7.27287e-13
4.3226e-12
-9.85554e-12
-1.03928e-12
-1.28723e-12
-1.14126e-11
-1.61342e-11
-7.4272e-12
4.62573e-14
-1.20558e-12
5.79329e-12
1.4891e-13
-2.88815e-13
-3.30475e-13
-1.62595e-12
-3.66728e-13
-8.22001e-14
6.67357e-13
-5.96678e-12
6.57213e-13
-6.55298e-12
-2.97787e-13
6.80391e-13
-2.30338e-14
-2.04199e-13
9.8125e-14
-1.94966e-13
-4.35278e-12
5.34472e-12
4.87267e-15
1.68286e-13
-3.53661e-13
-5.96202e-13
-3.39492e-13
-1.25946e-11
-1.49338e-11
-2.93082e-13
8.18857e-12
-7.98945e-12
5.97323e-13
7.27516e-13
-5.3882e-13
1.40276e-11
1.22797e-12
-1.01288e-13
-5.89841e-13
5.90948e-13
7.06675e-12
-2.45277e-11
2.7444e-13
-2.95513e-13
-1.11219e-12
-1.14165e-11
1.73104e-11
9.79167e-12
1.5995e-12
-8.13428e-13
1.46411e-12
-2.32548e-11
1.53024e-11
5.51177e-12
1.28175e-14
-1.14294e-11
1.18188e-12
-1.03576e-11
-2.858e-12
-1.41064e-13
8.7725e-12
0
-1.51621e-11
1.1751e-13
2.28386e-13
5.00214e-13
-4.03999e-12
-3.25716e-12
1.75594e-13
-5.40811e-14
-2.68862e-12
-3.93613e-13
1.04689e-12
-2.17624e-12
1.67736e-11
1.49307e-11
5.9763e-14
-1.08503e-11
6.69984e-12
-4.4673e-13
-3.6702e-14
-7.27519e-12
-6.36893e-12
2.08689e-12
-5.35888e-12
1.26443e-12
-5.20942e-13
7.25665e-14
-5.51058e-12
7.4452e-13
-7.30244e-14
-1.67561e-13
-1.4242e-13
-1.36345e-13
-2.20911e-13
-2.36247e-13
-3.58089e-13
1.07944e-11
4.17048e-12
-5.60581e-12
1.19218e-12
-3.02214e-13
2.63561e-12
0
0
-8.48065e-12
8.3558e-12
2.98561e-13
4.67089e-13
-3.91139e-12
-1.01951e-12
6.14976e-13
2.34312e-11
2.71075e-11
-5.90359e-13
5.88382e-13
-1.22427e-12
2.85919e-12
4.79351e-12
-5.90052e-12
2.51807e-11
1.37906e-12
-9.94411e-12
-7.15928e-14
-5.44276e-12
1.17118e-12
5.89295e-13
3.36903e-13
-5.66227e-13
-5.15943e-13
2.25643e-11
2.12525e-11
-8.0447e-14
7.28586e-13
-2.40858e-13
-1.40353e-11
5.29442e-12
1.11177e-11
-1.18045e-13
4.60124e-14
1.20402e-11
-2.92316e-11
6.61738e-12
1.0981e-13
6.50345e-13
1.19453e-12
1.04576e-11
8.51614e-13
1.48735e-11
-2.10936e-12
4.42852e-12
-8.96896e-12
2.59067e-11
1.93972e-13
2.7844e-13
6.22332e-12
1.47566e-13
-4.6079e-12
2.0165e-13
4.7429e-13
-3.20445e-13
4.48889e-12
-1.7894e-14
6.55385e-12
4.46798e-13
-2.11232e-13
-4.54987e-13
2.01375e-13
-1.2205e-13
1.50199e-13
1.21013e-13
-4.37184e-12
3.14186e-14
-4.04165e-12
5.27914e-12
8.94046e-12
-1.50191e-12
-1.46644e-12
5.87719e-13
0
-2.93392e-13
-1.47122e-12
8.95401e-13
-3.33873e-13
3.23675e-14
1.21437e-13
-6.10411e-13
1.7406e-11
-2.5406e-11
-5.91663e-13
-2.00652e-11
-2.63174e-11
-4.02879e-12
5.8806e-13
1.29654e-11
-1.43696e-11
-2.78518e-11
1.29912e-11
6.07285e-12
-5.03397e-13
-1.46921e-12
0
-9.93433e-12
-3.07742e-14
-6.88371e-13
-9.11723e-12
1.18331e-12
1.09659e-11
1.14992e-11
-5.72305e-13
1.34953e-11
-1.7703e-12
1.00596e-12
-6.37563e-13
5.06636e-12
-1.17754e-11
1.79325e-11
9.00933e-12
-3.02316e-13
1.32088e-13
-5.96863e-13
-7.13318e-12
1.40195e-11
1.58107e-11
-6.69073e-14
-1.20051e-11
8.8504e-12
-1.26378e-11
2.8479e-13
-5.76403e-13
-5.73357e-12
-4.7431e-12
-4.5475e-13
4.31056e-12
5.04295e-12
-6.80183e-13
6.05417e-13
6.11285e-13
6.70424e-12
1.48953e-13
6.05093e-13
7.93711e-13
1.0069e-13
1.58279e-13
3.98859e-13
-4.34775e-12
4.72867e-12
-6.36314e-12
1.93409e-14
1.4231e-11
-1.01378e-11
7.99271e-13
-5.8696e-13
2.93901e-13
-1.08839e-11
2.93462e-13
3.94364e-13
-1.19487e-12
-3.97607e-13
3.79645e-12
-3.81856e-13
-6.13792e-13
-9.082e-13
1.85746e-11
-9.18218e-13
-1.87365e-11
-1.58897e-11
5.42965e-12
9.11311e-13
1.8371e-13
5.86881e-13
1.44464e-12
-2.74316e-11
1.81889e-13
8.65513e-14
-8.81652e-13
1.59075e-11
2.00667e-11
3.32161e-13
-4.85721e-12
-3.23563e-12
1.00211e-13
-1.08302e-11
4.33824e-12
-1.97899e-13
5.86907e-13
-2.72476e-12
-2.56979e-13
-2.72783e-13
-5.29714e-12
6.29548e-12
-4.86738e-11
-4.43331e-14
-7.6612e-12
-7.36857e-13
-8.3643e-12
-2.11168e-12
-2.46115e-11
-3.96061e-12
1.34374e-11
7.69801e-13
2.79986e-13
1.29608e-11
-6.80105e-12
1.48979e-13
-6.26204e-12
-2.53124e-13
-2.20927e-12
-5.37143e-13
1.43767e-14
1.07847e-13
-4.53218e-12
-1.92417e-13
3.36853e-13
-5.95802e-13
2.62366e-13
5.03068e-12
-4.73419e-12
-3.38971e-13
-4.55133e-12
2.62014e-14
4.66716e-12
6.4529e-14
4.15189e-12
-5.21886e-12
-2.98181e-13
-6.25865e-13
-1.31807e-11
0
9.9649e-12
0
-1.44121e-11
1.25442e-11
1.11057e-12
2.02423e-13
1.09162e-13
6.13609e-13
3.89859e-12
0
-3.53873e-12
-2.46885e-11
1.0912e-12
1.28436e-11
4.66851e-12
-7.51649e-12
9.95749e-12
-9.20311e-13
1.33727e-12
-2.29261e-13
9.19985e-13
0
-1.17751e-12
-1.04031e-11
1.83586e-13
4.08903e-13
3.22381e-12
1.17957e-12
1.09298e-12
-7.7478e-12
-4.47141e-12
-2.92457e-13
-1.76344e-11
6.28765e-13
-6.66641e-12
6.78299e-13
-5.50345e-12
-9.88159e-14
-1.0735e-11
-4.39161e-12
1.09911e-13
-2.09072e-12
1.8637e-13
9.97213e-12
-1.27659e-11
-2.69289e-11
-8.37185e-12
-1.42635e-12
-2.77273e-11
-2.51976e-13
2.97938e-13
5.25647e-12
4.88905e-12
2.56797e-13
7.05674e-12
-6.50835e-13
4.66974e-12
6.92121e-12
-2.59612e-13
-3.88352e-14
-5.06477e-12
1.74971e-13
-7.61317e-13
-4.05208e-13
-5.26176e-14
4.90574e-12
4.43278e-12
-4.77216e-12
-1.85017e-13
-1.29651e-13
-1.42821e-11
1.49084e-12
-3.50346e-13
1.28871e-11
0
-9.96489e-12
-9.65095e-12
2.72939e-11
-2.38942e-12
7.1947e-12
-3.44296e-13
1.81725e-12
-1.84062e-12
-1.5112e-13
-4.2586e-13
-3.5453e-12
2.35504e-12
-2.75926e-11
-1.19466e-11
-6.17222e-13
5.47614e-12
-2.34284e-11
1.30897e-12
1.24553e-11
3.32133e-13
7.05045e-13
1.43483e-11
-3.58676e-12
9.73477e-13
6.77604e-14
5.36727e-12
-8.79206e-13
-1.71355e-11
-5.17119e-13
4.29886e-13
8.12641e-14
1.3744e-11
5.88729e-13
9.41628e-14
3.19641e-13
5.65443e-12
-1.39908e-13
-2.56929e-11
2.28266e-11
1.39209e-11
-5.07014e-14
1.04548e-11
-3.76683e-12
9.61776e-13
1.38539e-11
1.28414e-11
-5.7714e-12
1.73831e-12
1.53733e-11
1.60715e-11
0
-1.13403e-13
-4.4438e-12
7.71397e-12
4.84848e-12
4.52355e-14
-9.05809e-14
2.72345e-13
-5.14503e-12
0
4.47065e-13
4.82346e-12
-5.02681e-12
4.09623e-12
2.35297e-13
4.07708e-12
1.2865e-13
-5.03913e-16
1.72638e-13
-5.81199e-12
9.93202e-14
-2.9821e-13
-9.14808e-13
2.92764e-13
-2.92877e-13
1.05521e-11
9.94391e-12
-1.32181e-11
-9.25926e-12
-8.37951e-13
4.92313e-12
-1.15472e-12
0
1.65992e-12
4.67091e-11
5.90946e-13
-1.17769e-12
-2.15157e-12
1.64929e-12
-4.96478e-12
4.42959e-14
1.40511e-11
-1.72087e-12
-4.99994e-13
-8.47417e-14
6.86389e-12
-1.11283e-11
-7.97366e-13
-1.43924e-12
6.25567e-12
-1.24315e-13
2.93096e-13
2.36375e-12
1.15377e-11
-1.09161e-12
-1.64677e-12
-1.34525e-11
2.70837e-11
1.28364e-12
1.35002e-12
-8.00202e-14
1.1494e-11
2.31767e-11
-1.24181e-11
7.30198e-12
9.80446e-13
0
1.32501e-11
-7.42631e-13
-1.38786e-11
-2.00847e-12
1.25227e-11
-1.5291e-12
6.02849e-13
1.03065e-11
1.49017e-13
4.45702e-13
-4.40219e-12
-8.02419e-13
-6.59124e-12
8.26038e-13
-4.52674e-12
-6.20798e-12
8.91488e-14
6.35138e-13
4.47406e-12
-7.95689e-13
-1.32626e-13
2.84032e-13
-1.57815e-13
-5.10255e-12
1.87796e-13
3.67578e-14
-1.46395e-13
-6.28289e-12
5.75015e-12
-9.84444e-12
1.16572e-11
-2.92751e-13
-1.02499e-11
-1.17229e-12
5.84882e-13
-6.03832e-13
-2.98835e-13
-1.31836e-11
1.12451e-14
5.23581e-13
-6.13689e-13
1.83659e-11
1.50026e-13
-5.90698e-13
1.76573e-12
-1.29496e-12
-1.42075e-12
-3.57448e-14
-9.37519e-12
0
-4.17703e-11
-3.30632e-13
-6.49107e-13
-1.6771e-12
7.02758e-12
2.53537e-11
-7.86631e-12
-1.06529e-13
1.15325e-13
0
2.4809e-11
-1.17357e-11
-4.60604e-12
1.30244e-13
0
1.76569e-12
-5.88962e-13
7.31823e-13
4.69983e-13
-1.13751e-11
-1.47975e-13
4.99511e-13
-6.39954e-12
-5.55788e-12
-2.98826e-13
-2.0728e-12
-8.02786e-14
9.16396e-12
-1.15409e-11
-1.26534e-11
-8.06416e-13
-3.31464e-12
-9.65554e-12
4.45414e-12
3.63686e-13
4.46265e-12
5.11972e-12
-4.04974e-12
-4.87268e-14
-3.12588e-13
2.27585e-13
1.0708e-11
1.10182e-13
0
-5.01905e-12
5.03085e-12
8.8238e-13
1.37105e-13
3.4306e-15
-6.65568e-12
-4.19674e-13
1.8758e-13
5.39268e-12
2.83124e-14
1.82126e-11
-1.17862e-11
1.14409e-11
1.02768e-11
-5.87659e-13
-5.86412e-13
1.01945e-12
-2.98995e-13
-3.31627e-13
-4.79896e-12
9.05599e-14
3.06436e-12
3.06889e-11
0
2.53023e-11
2.58099e-11
1.70434e-11
-9.14702e-12
4.9278e-12
-4.60852e-12
-5.86795e-13
-1.77619e-11
-1.50497e-11
3.87008e-13
-7.17528e-12
-2.02581e-11
2.17371e-11
7.50444e-12
-6.10075e-12
-8.52155e-12
5.87665e-13
-1.17684e-12
-1.42021e-11
6.07626e-12
6.7078e-12
7.91676e-12
1.70111e-11
-1.9674e-13
5.79523e-12
-9.37432e-13
-3.59904e-13
1.28915e-13
-2.99458e-14
-3.30228e-12
-6.70359e-12
2.98972e-13
5.04667e-12
1.50269e-11
-9.78535e-12
1.40214e-11
1.3163e-11
1.46646e-11
1.32543e-11
-1.56205e-11
1.94593e-14
3.5449e-13
-8.49708e-13
-3.39423e-13
-7.3174e-14
-1.3843e-13
1.53595e-13
-7.2073e-13
9.51116e-13
-7.46461e-13
-4.62603e-12
-8.67942e-12
-6.66821e-12
-8.24972e-14
-2.45057e-13
1.27542e-13
2.64769e-13
5.54196e-12
2.64273e-13
6.86369e-12
-1.5309e-14
-8.96084e-12
-1.25352e-11
-1.0689e-11
9.22906e-12
8.93643e-13
8.91953e-13
-5.94261e-13
1.49546e-12
1.46384e-12
-9.22876e-15
2.58472e-13
1.22409e-12
-2.37088e-11
-1.15175e-11
1.98693e-11
2.12247e-11
-5.5105e-11
6.46139e-12
4.68265e-12
4.38019e-12
5.93939e-13
-1.97597e-11
1.491e-11
-5.77474e-13
1.61543e-12
8.93196e-12
2.14714e-11
6.01217e-13
5.99807e-12
3.26276e-13
0
2.80099e-11
3.00858e-12
3.35187e-13
4.80063e-13
-7.43422e-12
5.51699e-13
-1.43913e-11
-1.59224e-14
1.91639e-12
-8.91501e-13
-3.04382e-11
7.45727e-13
1.84765e-12
4.96365e-12
5.98091e-13
-1.95458e-11
-1.53139e-11
-1.33644e-11
1.38405e-11
7.49566e-12
-5.0435e-12
-1.08526e-11
-1.68136e-13
-4.92318e-12
-1.45435e-13
1.80903e-14
-5.54901e-12
4.54253e-12
-4.89687e-13
4.75851e-12
-5.60818e-13
-5.79043e-12
-1.49232e-13
-1.48886e-13
5.72854e-14
-8.90706e-12
1.63336e-14
-4.30034e-12
-6.2605e-12
6.67635e-12
6.54959e-12
4.54625e-12
5.33995e-12
9.26549e-13
-9.8221e-12
2.86202e-11
-9.99884e-13
-9.19536e-12
7.41897e-12
-2.96467e-13
-6.81739e-12
-1.18972e-11
-5.85098e-12
4.35373e-14
5.94406e-13
4.36449e-12
-1.17873e-12
-4.72736e-12
0
2.25376e-13
-2.82238e-11
3.2337e-12
-4.8566e-12
4.78669e-12
-4.40505e-13
-1.45537e-13
8.28662e-13
4.23242e-13
-4.50384e-12
-5.06389e-12
5.71361e-13
-4.18213e-13
-5.60397e-12
2.87385e-13
1.91325e-12
0
-3.23612e-12
1.27812e-11
-4.0274e-12
2.03762e-12
-5.82107e-13
-7.71021e-12
4.57631e-13
2.65313e-12
-1.06855e-11
-3.50743e-12
-1.00312e-12
-5.316e-13
3.33649e-12
-7.50764e-13
5.81331e-13
1.14643e-11
-6.11499e-12
6.65145e-13
-5.93058e-13
-1.78222e-11
1.32532e-11
-1.34208e-11
7.32819e-12
-5.97922e-12
5.76854e-13
1.36254e-11
-2.2316e-13
6.64383e-12
5.92908e-13
1.70541e-11
3.42397e-12
-3.31475e-11
-1.16408e-12
1.74496e-12
2.44165e-11
-2.62546e-13
1.01065e-12
6.40462e-12
1.48713e-12
1.69283e-11
2.57553e-13
1.35362e-11
-1.39411e-11
-8.5912e-12
-1.12372e-11
0
6.39041e-12
-5.97313e-12
3.09021e-14
1.24076e-12
-1.20624e-13
5.36527e-12
8.07252e-14
3.72331e-13
-1.38429e-12
-7.06617e-12
2.0843e-12
6.53273e-12
9.3477e-12
6.66764e-12
-3.70046e-12
-9.06566e-14
1.47987e-13
-5.92067e-13
-5.70453e-12
1.05764e-12
9.09615e-13
0
1.99909e-12
-7.61024e-12
8.16147e-14
-5.90751e-13
6.39583e-13
-5.76343e-13
6.79785e-12
-2.15513e-12
4.74737e-12
3.85243e-12
3.08344e-13
-8.84047e-13
-9.80577e-12
-2.94155e-13
-8.57681e-13
0
5.87926e-13
1.32331e-13
-4.88885e-12
-5.03255e-12
3.19381e-12
2.93731e-13
5.87089e-13
-1.17758e-11
1.30646e-11
1.00108e-11
-1.46492e-12
5.1589e-13
4.43986e-13
-1.4798e-13
-6.79329e-12
-2.20736e-15
3.29428e-12
-9.22779e-13
1.09946e-13
-4.16629e-12
1.91183e-13
-3.30111e-12
-6.06651e-12
-1.47981e-13
2.27022e-12
1.03029e-11
2.44453e-12
1.86608e-12
-3.28033e-12
-1.92376e-12
1.37216e-12
4.38005e-12
1.47966e-13
-7.40093e-13
7.35118e-13
1.47019e-11
-3.11606e-12
1.21986e-11
0
-9.44445e-13
-8.88371e-13
3.63916e-13
-4.44021e-13
2.9418e-12
2.95586e-13
9.88467e-12
-8.79818e-13
2.52055e-13
-3.64284e-13
2.12827e-11
-1.37729e-11
-2.94933e-13
-1.5548e-12
-2.96747e-13
-3.68033e-12
-8.8635e-13
6.81295e-12
2.94883e-13
-6.24327e-12
1.07302e-11
-1.439e-12
-2.37213e-12
4.45155e-13
3.15774e-13
-1.29392e-13
-3.48886e-13
0
-4.38221e-12
4.43925e-13
-4.14396e-12
1.48151e-13
-2.96721e-13
2.96927e-13
-1.48202e-13
2.96244e-13
7.9926e-12
1.47935e-13
4.73356e-12
6.06457e-12
0
-1.13978e-11
-5.62865e-12
-5.77966e-12
-1.18496e-12
-6.06714e-12
6.06046e-12
4.43205e-12
-3.72999e-12
-5.61497e-12
1.12278e-11
2.51201e-12
7.84273e-12
5.77638e-12
-4.29219e-12
0
-1.8073e-12
-2.32346e-12
-1.47659e-13
3.72853e-12
-4.05699e-13
-2.47119e-12
-4.72966e-12
0
-4.73354e-12
-2.95463e-13
-1.47503e-12
-4.94769e-12
-4.44104e-12
-7.99386e-12
-4.35824e-12
-7.63494e-12
-1.47739e-13
5.62093e-12
5.91588e-13
-5.17089e-12
-3.57797e-12
0
6.37822e-12
8.15756e-12
2.81269e-12
1.32906e-12
-2.95539e-13
1.1832e-12
6.21166e-12
-1.47734e-13
-4.09385e-12
-6.06251e-12
-4.7469e-12
7.41631e-13
-1.22127e-12
7.3835e-14
-5.61526e-12
2.95807e-13
2.9585e-13
-1.24074e-11
-5.7494e-12
7.67539e-12
2.25833e-12
-6.40336e-12
-3.54576e-12
4.16759e-12
-5.31824e-12
0
-5.77253e-12
1.88389e-12
1.58565e-12
-1.99076e-12
-8.12183e-13
-1.40292e-12
-2.58193e-12
2.0286e-12
-1.29293e-12
4.88464e-12
2.96229e-13
-6.067e-12
-3.98937e-12
-4.57903e-12
6.24124e-12
6.94474e-12
-1.47743e-13
6.50338e-12
7.6948e-12
-4.44366e-13
5.92751e-12
0
2.66411e-12
-1.47926e-13
-5.47286e-12
-5.02881e-12
-8.87535e-13
-4.55141e-12
1.39604e-11
-2.07477e-12
3.40519e-12
-5.9202e-13
1.47947e-13
4.28929e-12
-7.39478e-13
-1.47896e-13
1.4791e-13
-5.91807e-13
-5.92028e-13
-1.33246e-12
-5.9201e-12
-6.80506e-12
7.39324e-13
4.43494e-13
0
-5.91353e-12
1.47835e-13
1.47871e-13
4.73402e-12
0
-9.46818e-12
-5.02725e-12
-2.95575e-13
-4.43342e-12
-4.58254e-12
-1.06435e-11
1.47788e-13
1.10845e-11
2.95725e-13
0
3.54945e-12
-5.02578e-12
-1.47768e-13
3.69551e-12
1.47924e-13
-7.2485e-12
0
4.43368e-13
-1.47829e-13
1.03529e-12
-6.21078e-12
7.24274e-12
-2.9558e-13
-2.95797e-13
-6.81047e-12
4.44175e-13
-1.4793e-13
-4.87835e-12
1.09397e-11
4.43658e-12
-1.47875e-13
5.4689e-12
6.20697e-12
2.95791e-13
1.48054e-13
0
4.58584e-12
-4.43485e-13
0
4.58453e-12
1.47893e-13
1.4781e-13
1.25586e-11
-1.47804e-13
0
-2.95862e-13
-5.17447e-12
-1.47787e-13
6.35678e-12
0
-5.02992e-12
-1.47854e-13
1.47768e-13
0
-6.65196e-12
-1.33045e-12
7.24171e-12
-7.38965e-13
-7.39345e-13
-4.43846e-13
0
0
-5.91425e-13
-5.46943e-12
-1.47833e-13
1.47834e-13
-7.53934e-12
-4.43589e-13
-5.17783e-12
-4.44018e-13
0
4.4399e-13
4.43817e-13
1.47899e-13
-1.47888e-13
1.29569e-13
3.23532e-12
-3.71919e-14
1.11035e-13
2.96102e-13
4.58707e-12
5.91782e-13
-4.43748e-12
1.47896e-13
1.331e-12
-5.91561e-13
0
5.02929e-12
8.87693e-13
1.47972e-13
0
0
7.39417e-13
-4.43609e-12
5.02764e-12
-4.73194e-12
-5.47133e-12
-4.43667e-13
-2.95836e-13
0
4.73311e-12
-8.87274e-13
2.95708e-13
-4.7314e-12
-4.43625e-13
-5.9151e-12
-4.87948e-12
4.58372e-12
4.14079e-12
2.95828e-13
5.17594e-12
7.39291e-13
-2.95695e-13
6.21079e-12
4.43756e-12
3.99391e-12
4.43665e-12
6.06237e-12
-7.3935e-13
-7.39462e-13
-7.39363e-13
4.87915e-12
4.87925e-12
2.95813e-13
-1.13936e-11
-8.4345e-12
4.43772e-13
5.91512e-13
-4.43611e-13
-1.47885e-12
1.47872e-13
0
-2.95707e-13
4.43713e-13
0
-1.03582e-12
-2.95848e-13
-5.76725e-12
0
6.35909e-12
-1.47882e-13
6.20987e-12
5.47008e-12
1.47869e-13
6.65621e-12
6.50858e-12
1.25705e-11
-5.9145e-13
5.32338e-12
2.95791e-13
1.47907e-13
0
-2.95691e-13
5.91392e-12
-4.43613e-13
-6.80229e-12
-1.47862e-13
0
0
-4.88129e-12
-1.47939e-13
6.36008e-12
5.61932e-12
5.91452e-13
-6.65401e-12
-1.62656e-12
-5.9148e-13
1.47885e-13
-7.39588e-13
-3.69869e-12
1.47964e-13
0
1.4791e-12
-1.47889e-13
0
4.8986e-12
1.34941e-12
5.76866e-12
-7.69318e-12
-2.95943e-13
-4.43766e-13
1.03536e-12
1.47892e-13
-2.95763e-13
2.21818e-12
2.9576e-13
-2.9577e-13
5.91586e-13
0
1.47926e-13
6.35994e-12
7.09882e-12
-8.87275e-13
-7.39376e-13
4.87998e-12
1.4788e-12
-8.87279e-13
1.47885e-13
-4.73273e-12
2.95821e-13
5.02812e-12
4.1405e-12
-4.43609e-13
-1.47878e-13
4.58462e-12
-1.92261e-12
-5.17596e-12
-6.50665e-12
-4.4365e-13
2.95786e-13
2.07019e-12
4.43596e-13
-2.95742e-13
-1.47895e-13
6.2127e-12
6.95247e-12
1.47905e-13
-2.95768e-13
-8.87265e-13
-7.39405e-13
6.21026e-12
-4.43588e-13
7.39387e-13
2.95827e-13
2.95899e-13
-2.95908e-13
4.43779e-13
5.0284e-12