/*--------------------------------*- C++ -*----------------------------------*\
  =========                 |
  \\      /  F ield         | OpenFOAM: The Open Source CFD Toolbox
   \\    /   O peration     | Website:  https://openfoam.org
    \\  /    A nd           | Version:  10
     \\/     M anipulation  |
\*---------------------------------------------------------------------------*/
FoamFile
{
    format      ascii;
    class       volScalarField;
    location    "0.2";
    object      gradTy;
}
// * * * * * * * * * * * * * * * * * * * * * * * * * * * * * * * * * * * * * //

dimensions      [0 -1 0 1 0 0 0];

internalField   nonuniform List<scalar> 
46825
(
-2.98172e-13
0
0
4.31277e-12
1.03996e-12
-3.11989e-12
4.46156e-13
-1.63831e-12
1.49078e-13
7.45498e-13
3.71258e-12
1.18533e-14
4.71398e-12
8.15862e-12
1.88018e-13
-3.1329e-12
7.32036e-13
2.58863e-12
4.512e-13
7.74353e-13
5.18621e-13
-1.8223e-13
5.0979e-13
-4.3809e-12
-1.43288e-12
-2.05671e-13
1.74917e-13
1.00066e-11
-2.06028e-13
-5.85833e-13
-7.54635e-12
-3.38221e-13
-4.53197e-12
-3.80841e-12
7.57028e-14
2.46034e-13
-2.78375e-14
5.5334e-12
-4.84493e-13
3.15537e-13
3.51342e-12
-4.81572e-14
2.91188e-12
4.57047e-12
2.87145e-14
4.2169e-12
-6.12338e-15
-5.14535e-12
-4.09473e-14
-2.41753e-13
4.2809e-12
3.60767e-12
2.74018e-12
3.53958e-12
-6.19989e-13
1.12015e-12
3.92534e-14
-4.87868e-12
-1.08153e-13
-1.05111e-13
-3.20089e-12
5.4951e-14
-3.2956e-12
3.2019e-12
1.13597e-13
-4.6168e-12
-1.40677e-14
-3.60411e-12
1.11633e-13
2.84099e-13
-6.28292e-13
-3.24447e-12
-6.53923e-12
-3.66924e-12
4.99626e-13
-7.91219e-13
2.28808e-14
2.42538e-13
9.60984e-14
-3.83379e-13
-1.47025e-13
2.07508e-13
2.76392e-13
-3.75123e-12
2.53838e-14
-9.92276e-14
-4.04918e-13
3.33739e-12
4.474e-14
2.02029e-14
0
-1.49096e-13
3.2771e-12
-7.43695e-13
0
0
2.9749e-13
-1.04278e-12
0
-2.98252e-13
0
1.49346e-13
0
-4.62631e-12
2.98375e-12
0
-7.4618e-13
-3.4348e-12
0
-3.28275e-12
2.3039e-14
-5.69856e-15
2.61883e-12
1.42076e-12
-1.23403e-12
-1.38363e-12
-2.61727e-13
-6.92149e-12
-1.70891e-13
-3.83202e-12
3.11807e-14
-3.81786e-13
-9.65729e-12
5.94757e-12
-6.33669e-12
-1.30285e-12
-9.43289e-13
3.03807e-12
1.0943e-13
-1.44286e-13
-2.00625e-13
1.78259e-13
7.22804e-13
-2.60756e-13
2.74277e-12
2.24128e-12
3.003e-13
-5.33984e-13
9.88109e-13
9.07709e-14
-7.61812e-14
1.0836e-13
8.98767e-12
-2.15691e-13
8.51197e-12
8.46009e-12
6.10485e-13
-1.74098e-13
-1.21864e-13
3.46963e-13
-1.65343e-14
3.39804e-12
-3.50837e-13
7.76984e-14
-8.84483e-12
-8.88019e-12
1.23268e-11
3.23969e-13
-1.05148e-12
-3.70002e-14
3.37674e-13
-2.22808e-13
-3.09901e-13
-3.91471e-13
-4.28076e-13
-2.38508e-13
-1.26708e-11
7.8399e-12
-5.73961e-12
1.97463e-13
-3.60608e-12
-3.31097e-12
-7.62816e-12
-3.94791e-12
-7.71726e-12
-3.84657e-13
2.98277e-13
-6.87158e-12
1.09597e-13
4.49635e-13
1.76928e-13
5.17091e-13
-4.11637e-13
8.22704e-13
1.42101e-12
1.12186e-12
-7.8533e-13
-2.39509e-12
5.90204e-12
-4.28507e-12
3.28285e-12
4.48054e-13
-4.47996e-13
1.49228e-13
4.47528e-13
-3.5803e-12
4.47715e-13
4.33104e-12
0
-4.17842e-12
-1.02923e-11
0
-6.11516e-12
-1.19217e-12
5.21672e-12
7.45232e-13
-1.0133e-11
1.64068e-12
1.49293e-13
2.98382e-13
-2.06652e-12
4.10833e-13
-5.81242e-12
-7.45464e-12
-3.4618e-12
-3.08474e-12
-7.21912e-12
2.56677e-14
-5.04757e-13
2.47442e-13
9.64131e-12
2.29886e-13
-8.77761e-12
8.23953e-12
2.72072e-12
-6.08906e-12
2.27645e-12
-4.96368e-13
4.48129e-13
4.83662e-12
-3.36614e-12
9.78188e-14
1.79589e-11
-2.30657e-08
-3.35557e-08
-3.44812e-08
-2.95468e-08
-7.13775e-11
-4.44709e-13
-6.34965e-12
-4.56008e-12
-9.16074e-14
-1.82136e-11
-2.40317e-09
1.04993e-09
1.13381e-09
7.38788e-10
8.26302e-13
-4.69155e-13
-4.92053e-12
-1.13234e-13
8.69463e-12
2.02931e-11
6.9693e-10
-2.49696e-10
-2.75127e-10
-1.90719e-10
-4.3178e-12
1.96434e-12
6.21888e-12
1.74625e-13
-1.88448e-11
-4.72881e-12
9.33937e-09
-2.5649e-09
-2.69017e-09
-1.73055e-09
2.02116e-11
-2.10514e-12
3.73365e-12
-2.28303e-13
2.10073e-11
1.0644e-13
-8.09388e-11
1.82165e-10
1.82074e-10
2.81011e-10
-9.85128e-14
8.99056e-13
6.80079e-13
5.83028e-14
-9.99731e-12
-5.97662e-12
7.87473e-12
6.10016e-13
-7.5984e-12
2.7951e-13
2.11181e-12
-6.91671e-13
-3.41463e-12
-1.49171e-13
0
0
-2.83035e-12
-1.49005e-12
5.81136e-12
8.93864e-13
1.49113e-13
-1.49262e-12
-4.47561e-13
-7.44041e-12
5.79623e-12
-5.9072e-13
-1.46749e-12
-1.46522e-13
-3.07675e-12
-2.93435e-12
-2.06747e-12
-1.48654e-13
-1.48854e-13
-1.0746e-13
1.26794e-11
-2.91481e-12
1.43037e-09
1.39034e-09
1.37613e-09
1.39834e-09
8.53763e-10
-1.24878e-12
-4.44358e-12
1.0159e-11
-7.99052e-12
-2.39707e-10
3.71352e-06
3.81801e-06
3.84734e-06
3.78731e-06
3.95026e-06
8.85619e-10
-1.52831e-14
1.93652e-13
-7.51133e-12
-1.61888e-08
-0.323866
-0.489363
-0.491734
-0.4859
0.0445107
1.20581e-09
6.79144e-13
-6.67553e-12
-1.0699e-11
-1.56677e-10
-0.00172388
-0.00589474
-0.00614383
-0.0055983
-0.000391353
1.07155e-11
3.69768e-12
-8.83166e-13
8.85672e-12
5.26821e-10
0.00015493
0.000385035
0.000378475
0.000377067
-0.000617463
-6.98503e-13
3.84987e-12
3.59973e-12
3.20476e-12
1.18357e-09
0.0092985
0.016976
0.0171764
0.0170103
-0.000946165
-1.05775e-10
-4.33532e-12
5.75184e-13
6.34438e-12
3.79587e-08
-0.00118583
0.317467
0.319027
0.314279
-0.00444137
-1.12318e-09
-1.48483e-13
-2.30681e-13
4.48543e-13
1.91108e-08
1.14884e-07
8.94756e-08
8.68329e-08
9.3811e-08
-8.76373e-09
9.97771e-12
1.2397e-12
-1.48808e-13
-6.68574e-12
3.09961e-12
-2.63985e-12
8.78798e-13
0
-4.40004e-13
4.72376e-12
1.18884e-12
4.46502e-13
-2.97237e-13
1.92918e-12
-2.7931e-12
-7.98805e-12
-7.51936e-12
-4.33749e-13
-6.53225e-12
3.08606e-12
-7.56969e-12
0
3.04179e-12
1.77909e-13
-3.22987e-11
-1.00579e-08
-1.31183e-08
-1.19485e-08
-1.48617e-08
-1.0172e-09
-5.71306e-12
-3.84096e-12
4.59336e-13
9.42713e-12
-3.45765e-07
0.0362033
-0.288681
-0.289448
-0.288211
0.0113313
1.53225e-09
-3.77453e-12
-3.13726e-12
-2.96345e-11
0.00680921
2.13468e-07
3.69354e-12
-3.52563e-12
3.75695e-11
0.000174345
9.02952e-08
9.11366e-12
2.18828e-13
-7.03972e-12
2.89581e-05
-9.85712e-09
-3.57025e-13
3.47628e-12
-8.39989e-11
-0.000290275
-2.86123e-07
-5.79922e-12
-3.57972e-12
-6.96034e-12
0.00028024
1.94949e-07
-3.77159e-12
-1.04315e-12
-5.09022e-14
1.16844e-07
2.94668e-05
6.37365e-05
6.38831e-05
6.3404e-05
-5.37884e-06
1.11422e-11
3.80952e-12
2.2293e-12
8.90069e-13
-5.14158e-12
1.45124e-12
5.78191e-12
4.33647e-13
8.70763e-13
4.99498e-12
3.11596e-12
7.43252e-12
4.45995e-12
4.75409e-12
-4.26712e-12
1.30614e-12
-5.77418e-13
2.88668e-12
1.01529e-12
1.17644e-12
5.9428e-13
-1.4871e-13
-1.08029e-13
4.59973e-12
-3.04629e-11
2.46159e-09
-1.4591e-08
-1.28046e-08
-1.64374e-08
-1.16049e-09
-7.18078e-13
-2.05399e-13
-5.02018e-12
5.93861e-13
-3.57664e-07
-0.242946
-0.301466
-0.302302
-0.300581
0.0118029
1.50222e-09
-3.97354e-12
2.43649e-14
-6.56537e-11
0.00841122
4.30983e-07
5.14938e-12
3.56858e-13
6.12671e-11
0.000225267
1.17792e-07
8.33806e-12
-4.11122e-12
6.13391e-12
4.54747e-05
-1.4789e-08
-8.31201e-12
1.62098e-13
-1.54543e-10
-0.0004015
-4.34244e-07
-7.42061e-12
-2.72657e-12
6.82373e-12
0.000323931
2.19387e-07
3.50618e-12
4.95853e-13
-5.90233e-14
1.19687e-07
3.06809e-05
8.15092e-05
8.18034e-05
7.97419e-05
-5.66854e-06
1.9189e-11
7.11272e-12
6.39279e-12
2.67301e-12
-6.32157e-12
1.45015e-13
2.74182e-12
4.04056e-12
-5.80056e-13
-7.93886e-12
-4.45579e-12
3.27133e-12
8.77621e-12
7.43434e-12
-7.50996e-12
-1.45204e-13
8.66486e-13
2.74358e-12
4.78931e-12
0
5.05581e-12
-1.48796e-13
3.51359e-12
1.25793e-11
-2.83483e-11
3.53856e-09
-1.26606e-08
-1.14903e-08
-1.5292e-08
-1.18184e-09
2.7956e-12
-3.29272e-13
-4.64503e-13
8.92457e-13
-3.59487e-07
-0.243398
-0.302087
-0.302911
-0.301102
0.0118233
1.54805e-09
-1.46866e-13
-5.66974e-16
-8.79989e-11
0.00845258
4.11377e-07
6.97233e-13
-4.1431e-12
5.30858e-11
0.000225658
1.10862e-07
-1.7604e-13
-5.35028e-13
-1.49512e-11
1.52613e-05
-1.95698e-08
4.9072e-14
-6.43139e-13
-1.20231e-10
-0.000432298
-4.48532e-07
8.51082e-13
4.50314e-13
-6.68426e-12
0.00032538
2.19524e-07
-5.08881e-14
3.21e-13
-2.38677e-13
1.19958e-07
3.07188e-05
8.18283e-05
8.2135e-05
8.00243e-05
-5.69822e-06
2.11519e-11
-6.27067e-13
-2.97522e-13
0
6.47424e-12
0
-4.33113e-12
0
-5.80414e-13
4.70853e-12
-1.18922e-12
2.97578e-13
2.97648e-13
-7.8847e-12
2.06273e-12
0
-7.22569e-13
-1.87847e-12
-8.71336e-13
5.74333e-12
-5.65357e-12
1.48866e-13
-5.00045e-12
-7.49096e-12
2.75749e-12
3.64006e-09
-1.27465e-08
-1.13426e-08
-1.52315e-08
-1.20062e-09
-6.09244e-12
1.82588e-13
8.85838e-14
-4.73548e-13
-3.57009e-07
-0.243396
-0.302111
-0.302946
-0.301144
0.0118315
1.52194e-09
-2.35801e-14
1.08533e-12
-8.52981e-11
0.00844106
4.10677e-07
-7.74223e-14
-4.37843e-13
5.70449e-11
0.000225661
1.08958e-07
-1.09916e-13
3.55611e-12
-1.02401e-11
1.52671e-05
-2.51455e-08
-1.60879e-14
3.97257e-15
-1.31715e-10
-0.000432311
-6.0132e-07
-2.49722e-14
-1.05886e-13
9.39807e-13
0.000327346
1.1848e-07
4.71915e-14
-2.35481e-13
8.65719e-13
1.19845e-07
3.07323e-05
8.18658e-05
8.21689e-05
8.00566e-05
-5.69838e-06
1.65205e-11
1.51975e-13
1.48836e-13
-2.97425e-12
-3.97511e-12
-2.46837e-12
-5.34554e-12
1.44475e-12
2.03279e-12
2.3557e-12
1.63605e-12
-1.48862e-13
-4.76418e-12
5.95294e-13
-1.47421e-13
-5.09099e-12
-7.09176e-12
1.30246e-12
-7.41509e-12
-1.76829e-12
1.48838e-13
0
-8.94456e-12
-4.10897e-13
-7.45259e-13
2.99782e-09
-1.37218e-08
-1.25552e-08
-1.62081e-08
-1.15726e-09
-9.24117e-13
5.43317e-13
3.68697e-12
-9.40959e-13
-3.56338e-07
-0.243301
-0.301911
-0.302728
-0.300936
0.0118172
1.54819e-09
3.32051e-13
4.10266e-12
-6.24542e-11
0.00843782
4.09107e-07
1.98328e-13
-3.7979e-13
5.28921e-11
0.000225517
1.06162e-07
-3.8374e-12
6.64254e-15
-6.51136e-12
1.52628e-05
-2.43119e-08
-6.08987e-12
-3.40955e-12
-1.38293e-10
-0.000432063
-4.88158e-07
3.8867e-12
5.61427e-14
9.50152e-13
0.000325434
4.53242e-07
6.27841e-12
5.93382e-15
7.48738e-12
1.19871e-07
3.0854e-05
8.16608e-05
8.19545e-05
7.98989e-05
-5.67679e-06
1.65721e-12
-1.11211e-13
1.48893e-13
-1.48768e-13
8.39707e-12
-4.36117e-13
-4.34093e-13
3.90685e-12
-4.36117e-13
1.17858e-12
6.99308e-12
0
0
7.44302e-13
-2.95044e-12
-7.28832e-13
-4.20989e-12
-2.90316e-13
0
-1.17988e-12
1.19107e-12
1.4896e-13
2.17966e-14
1.10269e-13
-3.20422e-12
8.78603e-09
7.5847e-09
9.03174e-09
4.66468e-09
-1.22468e-09
4.07022e-13
-2.81039e-13
3.51562e-12
9.46114e-12
-3.54054e-07
-0.239493
-0.293309
-0.293944
-0.29259
0.0115074
1.36569e-09
-5.0627e-13
4.02868e-13
-1.5245e-10
0.00720064
3.06504e-07
1.26206e-13
-3.56428e-12
-3.66825e-11
0.000176088
3.42634e-08
4.03922e-13
-5.18367e-12
8.2242e-12
1.47864e-05
-6.22054e-09
2.67199e-13
2.36005e-13
3.19408e-11
-0.000306334
-1.40069e-07
-3.888e-13
4.2635e-12
-2.04236e-12
0.000302261
1.73587e-07
-7.89313e-14
-2.04025e-13
1.10646e-12
1.18523e-07
2.09113e-05
2.76197e-05
2.74234e-05
2.94571e-05
-5.16173e-06
2.07242e-11
1.1075e-13
-1.4893e-13
2.97625e-13
2.50652e-12
-6.55637e-12
-1.01593e-12
1.16108e-12
-1.16559e-12
-7.22499e-12
-2.9768e-13
0
1.0426e-12
5.3593e-12
1.47498e-13
1.31167e-12
-1.74196e-12
1.16129e-12
-9.76392e-12
0
1.48892e-12
1.48968e-13
-3.87058e-12
6.79311e-12
1.0582e-12
2.34815e-12
3.12214e-12
6.77316e-12
-3.52486e-12
-7.53897e-12
-2.11497e-12
3.04081e-13
-4.21293e-12
-1.78595e-12
-3.48562e-09
-5.48573e-06
-5.68729e-06
-5.69392e-06
-5.68453e-06
-4.76631e-06
1.08542e-11
3.1273e-12
-2.70358e-14
1.11524e-11
4.56607e-08
-1.76838e-10
9.00698e-14
-3.45508e-13
-9.47439e-12
1.43737e-09
-1.39989e-11
-3.87578e-12
-4.02529e-12
6.77275e-12
-2.16675e-10
2.13972e-12
-4.06957e-13
4.7906e-13
-7.43733e-12
-2.09081e-09
4.39754e-11
1.85851e-13
3.86839e-12
-1.76742e-12
-2.94595e-07
-6.9843e-10
7.1725e-13
-3.15902e-13
7.19513e-12
5.6648e-10
-1.79466e-08
-1.88253e-08
-1.8869e-08
-1.86255e-08
1.35565e-08
7.22675e-12
5.60191e-13
1.48953e-13
-8.92973e-13
0
0
2.9028e-13
-5.66046e-12
-1.45704e-13
1.47455e-12
0
1.48964e-13
-4.46831e-13
0
0
-8.72492e-13
-6.51304e-12
-8.68412e-12
1.01793e-12
-3.97971e-12
2.382e-12
1.19166e-12
1.56957e-14
2.98138e-13
-7.63986e-12
-2.92748e-13
-7.03107e-12
-1.46598e-12
-6.4365e-12
-5.54332e-12
4.77823e-12
1.01719e-12
6.48372e-13
0
6.11983e-13
6.10962e-13
-5.11721e-13
2.26124e-13
1.16246e-11
-3.45083e-12
6.02678e-13
-3.92219e-12
4.95176e-12
8.78208e-12
1.95437e-11
-1.48456e-13
-6.01781e-13
-1.69029e-13
-1.55265e-11
-1.12023e-13
-2.62492e-13
3.76025e-12
-4.69024e-12
6.74334e-12
-6.05396e-13
-1.01589e-11
-3.51077e-12
5.3645e-12
2.92563e-13
-4.91446e-13
9.51386e-12
-3.36361e-12
-8.14673e-14
-7.94367e-12
-3.03921e-11
8.77553e-13
4.07227e-12
-5.1265e-12
8.3619e-12
-3.29002e-12
2.17587e-13
4.90016e-12
1.46546e-12
4.66269e-12
-7.31297e-14
1.05451e-11
3.57627e-12
1.48945e-13
2.08344e-12
-1.47362e-13
0
1.15773e-12
1.44715e-12
7.26957e-13
-7.36742e-13
-8.33459e-12
0
0
1.36932e-11
-1.32587e-12
-8.71628e-13
4.19172e-12
-4.3363e-12
-1.88861e-12
8.84017e-13
-2.38164e-12
2.97885e-13
-4.85357e-14
5.06887e-12
7.30771e-13
2.92689e-13
5.56396e-12
-4.98243e-12
0
8.08104e-12
4.77895e-12
4.72263e-14
-6.84649e-14
5.95729e-12
-1.89793e-11
-1.81312e-11
4.27369e-12
8.27142e-12
3.53283e-12
-1.32505e-11
3.10117e-12
-2.49138e-13
-9.57478e-14
-2.92689e-13
0
2.60846e-12
-2.70807e-13
1.22089e-13
0
1.65138e-11
2.26394e-13
1.12064e-13
-6.7328e-13
0
-1.71336e-11
7.48846e-14
3.95312e-12
9.7605e-14
-5.55649e-12
-5.888e-13
9.96633e-12
-5.32137e-12
4.09205e-12
5.88468e-12
4.00596e-13
-1.02459e-11
-4.21813e-12
3.95778e-12
-3.88275e-12
0
8.72686e-13
2.1968e-13
2.71503e-12
6.92853e-12
-6.51461e-12
0
5.10396e-12
1.48933e-13
-5.95216e-13
-5.00833e-12
0
3.75764e-12
3.17955e-12
-4.35757e-13
7.36456e-13
-1.04168e-12
5.95761e-13
5.95711e-13
8.92991e-13
0
1.7429e-12
4.47963e-12
-1.30054e-12
-4.35738e-13
-3.53551e-12
-6.25121e-12
4.76582e-12
8.98754e-13
6.26811e-13
-4.26482e-13
-4.44955e-13
4.10051e-12
-2.93136e-13
-5.84976e-13
-4.92441e-12
-7.46764e-12
2.74778e-13
-2.98861e-13
-2.97885e-13
-1.53082e-11
-7.78686e-13
1.31825e-12
1.18199e-12
1.17784e-12
1.00821e-11
-3.01977e-13
-1.32373e-12
-3.88023e-12
-2.22964e-14
-1.16239e-12
-1.88504e-13
-4.76803e-13
-7.25994e-14
-8.20042e-12
-2.94955e-12
8.66408e-14
-3.60682e-12
3.89186e-12
7.62116e-12
-1.53657e-11
4.63153e-14
4.30039e-12
-3.23955e-13
2.92489e-13
1.76675e-12
1.80467e-12
-2.05937e-13
4.20969e-12
-8.82665e-13
-2.24948e-11
-2.04973e-12
-3.71427e-12
3.87916e-13
6.27258e-12
8.18602e-13
9.4474e-13
-4.39619e-13
2.05566e-12
-4.0129e-12
-7.02853e-12
-7.65338e-12
2.86843e-13
-4.46785e-12
-2.97592e-12
2.94554e-13
5.80911e-13
-2.16734e-12
-1.58938e-12
-4.50197e-12
5.0075e-12
2.67847e-12
4.46789e-13
2.82973e-12
4.46497e-13
1.47319e-13
1.45286e-12
-6.64991e-12
2.89126e-13
-4.79442e-12
8.83919e-13
1.48834e-13
-4.02132e-12
-2.35838e-12
2.80355e-12
-4.19483e-13
1.60924e-13
-6.4173e-12
3.72095e-12
4.67919e-12
-3.87124e-12
1.71006e-13
-4.3925e-12
2.10315e-12
-2.08499e-12
1.38042e-11
6.6968e-13
1.13596e-11
-1.77289e-12
-1.00111e-11
1.13789e-11
0
9.49296e-15
5.13585e-12
-7.52396e-13
5.81142e-13
6.20007e-13
-1.59593e-13
3.34754e-12
4.39068e-13
2.35958e-12
-8.10106e-12
-1.91416e-13
-5.33758e-13
6.18337e-13
-1.30011e-11
6.82294e-12
3.79172e-13
-4.59966e-12
-1.16978e-12
0
-3.66993e-13
3.4407e-12
-3.90447e-12
1.47098e-11
4.5914e-13
-7.63491e-12
-3.65652e-12
-3.75128e-13
-1.29873e-11
-9.09368e-12
-1.67142e-12
1.53833e-12
5.87174e-12
-7.73209e-12
6.22242e-12
7.97527e-12
-3.13497e-12
3.42541e-12
-2.82719e-12
0
-6.1011e-12
-1.44546e-13
8.67282e-12
1.45267e-13
1.4729e-13
2.08327e-12
3.42551e-12
4.46821e-12
2.97688e-12
1.47385e-13
5.81889e-13
2.462e-12
1.44822e-12
2.03656e-12
1.03168e-12
-1.48847e-13
-7.00064e-12
-3.25275e-12
-3.2789e-12
1.77382e-12
-1.05873e-12
-2.86184e-12
2.93072e-13
1.8621e-12
-2.24747e-12
-2.68718e-12
-3.63288e-12
-3.83299e-12
-2.08419e-12
-3.51593e-12
-9.16608e-13
3.17723e-13
0
5.88424e-13
-5.47118e-12
0
3.39138e-12
3.89625e-12
9.11151e-13
-1.62629e-11
-4.57179e-13
-1.48148e-13
1.36889e-13
6.76015e-13
-1.41453e-11
-3.35177e-13
-3.7199e-13
3.87193e-12
2.93069e-13
0
-1.87452e-13
1.67156e-13
-4.09976e-13
-9.37789e-12
-1.64744e-11
8.31072e-14
2.49446e-13
5.21016e-14
8.82301e-12
-2.24948e-14
8.20533e-13
-3.06839e-13
1.85743e-13
1.05914e-12
-1.15273e-12
-3.77496e-12
2.92607e-13
1.17264e-12
1.96726e-12
2.12092e-12
-1.80626e-13
-8.39761e-14
-3.27685e-12
1.07143e-11
1.91561e-12
-8.72714e-13
-7.24022e-12
0
-8.7269e-13
1.76823e-12
7.14329e-12
2.97897e-13
0
0
3.09796e-12
4.5197e-12
-1.30714e-12
-1.88803e-12
2.0409e-12
2.95014e-13
1.78674e-12
1.48985e-13
1.93449e-13
-9.29157e-13
4.41823e-13
6.30526e-12
-1.26459e-12
-2.68305e-12
6.45863e-13
-3.27684e-13
7.06092e-12
1.59761e-13
1.6993e-14
8.92868e-13
-1.3221e-12
8.62564e-12
1.80528e-11
2.36659e-12
-7.15808e-12
-5.87423e-12
-7.82727e-12
-4.63744e-14
7.99966e-14
-7.92964e-13
1.62972e-11
1.97162e-13
-1.47897e-13
-2.89652e-13
1.02886e-11
-6.39307e-13
-7.37822e-13
8.05147e-14
-8.22548e-15
-9.88069e-12
0
-7.04674e-12
3.54545e-14
-3.26571e-13
-4.17599e-14
-1.31445e-11
7.91008e-12
-1.29257e-13
1.13803e-13
2.80732e-13
-2.92666e-12
6.28139e-12
-3.47e-12
9.75346e-14
5.31953e-12
6.03348e-13
-1.17646e-12
5.08506e-12
5.90608e-12
-7.04762e-12
-8.54706e-12
-6.18933e-12
-6.07161e-13
-1.4898e-13
-1.042e-12
1.4749e-13
0
-1.45213e-13
1.45212e-13
7.87075e-12
5.89895e-12
0
2.97971e-12
3.8731e-12
0
1.623e-12
5.82853e-13
0
0
-1.45669e-12
-1.77008e-12
5.95689e-13
3.57608e-12
-2.65396e-12
2.32988e-13
8.93779e-12
-1.13996e-11
-9.4354e-12
1.08845e-11
8.99377e-12
5.01865e-14
-3.43017e-12
3.46039e-13
-3.59082e-12
-2.97779e-13
-2.64001e-11
1.55666e-11
1.90664e-11
8.20358e-12
6.24967e-12
-7.74838e-12
-1.95013e-12
-7.19927e-12
3.21083e-12
7.80204e-13
-2.6257e-13
1.89428e-12
-2.06118e-13
3.68277e-15
-2.92675e-12
-1.14227e-11
-4.67855e-13
3.99274e-12
-4.03703e-14
5.88307e-13
1.26028e-12
-1.0969e-11
-3.88852e-12
-3.81224e-14
1.19409e-12
-1.62973e-11
1.77321e-11
-1.5647e-13
-1.7487e-13
1.60047e-13
-1.05827e-12
-6.00791e-12
3.50389e-12
4.43482e-13
-3.90184e-15
-1.12143e-11
1.38587e-12
5.3805e-12
1.99348e-12
-2.2027e-13
3.00232e-12
6.51359e-13
1.53053e-13
2.98001e-13
-9.97531e-12
8.84853e-13
1.4565e-12
0
0
2.03897e-12
-1.76956e-12
-8.03965e-12
2.98001e-13
0
1.34001e-12
1.32721e-12
1.45454e-12
2.89397e-13
-5.78735e-13
1.16309e-12
1.03179e-12
-8.93382e-13
-4.91676e-12
-4.94049e-14
2.98173e-13
2.53708e-13
-9.44463e-12
-8.78508e-13
-7.6203e-12
-1.05297e-11
9.27175e-12
-2.98717e-13
-3.97812e-12
2.04344e-13
6.85066e-12
-6.83869e-14
1.30522e-11
2.59057e-11
1.88724e-11
1.17586e-11
-1.00755e-12
3.64139e-12
3.85124e-13
-5.82803e-13
-5.64873e-12
-2.20091e-11
-6.15508e-12
3.79108e-12
-1.4318e-13
-8.78425e-13
-5.88753e-13
1.05844e-13
4.84226e-13
6.03676e-13
7.61992e-12
0
-4.71732e-13
-2.98821e-12
3.39584e-13
-7.87919e-12
-1.17585e-12
4.32631e-14
4.57827e-12
-4.2834e-12
0
2.67541e-11
-1.09718e-13
6.21571e-12
4.78885e-12
9.77709e-12
-7.29329e-12
1.52488e-12
-5.55995e-12
-7.69557e-12
6.33923e-12
8.41442e-12
5.56908e-13
4.29844e-12
8.64174e-12
3.12608e-12
1.17887e-12
3.7794e-12
1.4466e-13
2.8932e-13
1.30823e-12
-4.86266e-12
1.04201e-12
1.192e-12
-5.95845e-13
7.44452e-13
-5.45538e-12
0
-1.44589e-13
-1.44574e-13
-1.30774e-12
-2.94722e-13
-1.19117e-12
0
2.12494e-12
3.67066e-12
-5.46053e-12
8.47151e-12
-3.08738e-13
-3.55753e-13
1.43826e-13
-8.83782e-12
1.21139e-11
-8.98805e-13
6.96924e-13
-1.75736e-11
1.22764e-12
-3.67514e-12
-2.30006e-11
4.72724e-12
-5.29961e-12
1.57003e-11
-9.05873e-12
4.80255e-12
-2.35364e-12
9.53864e-12
-2.89878e-12
1.08196e-12
1.32432e-12
-1.13496e-13
-4.41794e-13
0
-6.62942e-13
-5.01554e-12
1.79283e-14
-5.27684e-14
1.06361e-11
5.40632e-13
-3.95364e-12
-1.64591e-14
-6.15909e-13
0
-1.90334e-13
8.74061e-14
-1.07924e-13
5.88444e-13
-1.30075e-12
-6.03831e-13
3.42416e-12
2.32634e-14
-6.69296e-12
-1.10223e-11
-3.05239e-12
-1.02554e-12
-1.39444e-12
-6.78373e-12
-5.85656e-13
-7.89195e-13
4.12129e-13
0
-1.33975e-12
4.5672e-12
-6.68296e-12
-1.4455e-12
-3.90276e-12
-5.81109e-13
-7.36626e-12
-5.06117e-12
0
0
-2.97871e-13
-1.76986e-12
5.96328e-12
-4.19537e-12
4.77353e-12
1.09031e-11
-1.76901e-12
5.95772e-13
5.9623e-13
3.16729e-13
1.12576e-12
1.04836e-11
6.07171e-12
-1.10681e-11
7.33521e-12
1.08063e-11
1.77791e-13
-6.46763e-12
-7.57923e-12
2.99307e-12
-2.97875e-13
-9.39033e-12
4.43846e-13
8.25764e-12
0
0
4.89647e-12
7.24773e-12
-4.70203e-12
-5.52816e-13
-1.52555e-13
1.27557e-11
-7.83009e-12
3.74253e-12
-2.68417e-12
-3.48866e-13
1.29763e-11
6.92378e-12
4.39416e-13
4.39568e-13
1.23446e-12
0
-6.64892e-12
5.38173e-14
-3.36157e-13
-1.38626e-12
0
7.31348e-12
-3.82623e-12
-6.54859e-12
0
-1.21529e-13
-5.85555e-13
-1.58934e-13
1.59955e-13
-1.49489e-13
2.3593e-12
-3.05241e-12
-4.39568e-13
-6.45945e-12
-1.56108e-11
2.85511e-12
-7.50387e-13
3.6045e-12
6.26037e-12
-2.9782e-12
-1.47386e-13
1.45353e-13
-1.44632e-13
1.01241e-12
1.30816e-12
1.47381e-12
1.93579e-12
1.49064e-13
0
-7.45265e-13
2.51048e-12
7.7261e-12
5.94843e-12
-1.4507e-13
-3.20582e-12
4.57653e-12
1.11799e-11
4.32568e-12
-4.72259e-12
7.90691e-12
4.53843e-14
5.96166e-12
1.47784e-11
1.65207e-12
-9.84093e-12
4.57761e-12
9.50239e-12
4.27735e-12
3.32363e-12
-8.93351e-12
-3.58591e-13
-1.00288e-12
-1.98527e-11
-9.18257e-13
1.07639e-11
1.58398e-12
-9.65835e-12
-3.24868e-12
9.55737e-12
-1.39742e-13
0
8.63741e-12
-6.24654e-14
-3.95902e-13
6.42001e-13
1.17918e-12
-2.91532e-13
3.86275e-12
-4.16849e-12
-5.90148e-14
3.49033e-11
-5.12569e-14
3.70033e-13
-7.20428e-12
-2.94245e-13
3.31117e-13
-2.43655e-13
-2.19437e-13
6.63132e-15
2.94224e-13
1.42646e-12
-9.39389e-13
-3.58999e-13
-7.0614e-13
-8.75149e-12
-6.54378e-12
7.33392e-12
3.65854e-13
-1.39278e-12
-2.91481e-13
-1.53638e-12
8.36178e-13
-1.46378e-12
-4.32566e-12
8.4954e-12
2.95206e-12
7.86788e-12
0
-4.93181e-12
5.5367e-12
8.85599e-13
-4.32221e-12
-1.6409e-12
0
0
-1.48227e-12
-1.76197e-12
5.85517e-13
0
1.46796e-13
-5.77995e-12
-5.97139e-12
-2.68701e-12
-6.73878e-12
-3.03737e-12
-1.15516e-12
2.71753e-12
1.8408e-13
5.38032e-13
9.76908e-12
-1.64184e-11
-1.44598e-11
6.31039e-13
-7.18985e-13
-5.96248e-13
2.36764e-11
-1.62446e-12
6.71876e-12
1.45265e-12
-1.18469e-11
2.41337e-11
9.7052e-12
3.34015e-12
3.34724e-12
-8.18579e-12
0
-8.63012e-12
-1.66992e-13
-6.98557e-14
-8.26086e-14
3.95987e-12
8.83079e-12
1.97569e-13
-1.03692e-12
1.30167e-11
-5.82629e-13
3.93394e-13
-2.50151e-14
-5.00212e-12
-6.61979e-12
4.64463e-13
-7.70129e-12
9.69143e-14
1.02343e-12
2.35677e-12
-9.29149e-13
8.35456e-12
1.10441e-13
4.89002e-12
-7.6902e-13
5.08757e-13
-3.19176e-12
-9.49636e-12
-1.68277e-12
1.74697e-12
-8.7655e-13
-7.01822e-12
-1.30174e-13
3.13484e-12
0
0
-2.64204e-12
5.85444e-13
1.46363e-13
-1.46785e-13
-4.44553e-12
-3.13476e-12
0
-3.7303e-12
-3.13575e-12
-1.3396e-12
2.96481e-13
1.48086e-13
-1.48081e-13
-1.48231e-12
-7.4418e-13
0
1.49223e-13
-1.17665e-13
2.11049e-12
-1.34028e-12
6.81012e-12
4.5789e-14
9.18879e-13
-1.10332e-14
-6.17264e-14
-9.32224e-12
8.14836e-14
4.12583e-12
-6.872e-12
1.01088e-12
-1.22146e-11
2.34991e-11
-1.27329e-11
1.15183e-11
1.45001e-12
1.27954e-11
-1.47639e-13
6.91961e-13
7.15902e-12
2.19394e-12
2.97357e-13
-2.52417e-13
-3.97824e-13
-1.13736e-11
2.60022e-13
-7.19447e-12
8.36594e-14
-6.51675e-13
1.06216e-11
-1.48987e-13
1.40057e-12
5.87188e-14
-4.62632e-12
3.79929e-13
-2.71108e-12
-1.12472e-12
-2.01021e-13
2.22127e-13
-8.89476e-13
-1.69218e-11
7.38953e-13
3.52801e-12
1.96609e-12
1.12131e-12
7.50567e-12
-3.44897e-12
5.28093e-12
-1.91948e-13
-1.9331e-13
-1.85646e-12
1.92876e-13
-2.5663e-13
-2.686e-12
-8.80827e-12
1.63681e-12
-8.89263e-13
0
-1.48084e-13
-1.03757e-12
4.6135e-12
0
-3.28368e-12
3.42418e-12
8.93367e-13
-5.9451e-13
-1.03854e-12
-1.48305e-12
4.44918e-13
1.63193e-12
-1.09977e-11
-2.97762e-13
-2.97756e-13
3.55419e-12
4.21434e-13
-3.59193e-12
-1.54854e-12
2.51111e-12
8.16753e-12
-7.05525e-12
2.80223e-13
-7.00026e-12
-3.41047e-13
3.34289e-12
0
-5.60644e-12
3.72443e-12
2.93138e-12
-1.07754e-11
3.37011e-12
-8.64565e-12
-2.37755e-12
4.20603e-13
3.31288e-12
0
1.88085e-11
-2.32956e-12
-1.0369e-12
-4.36794e-12
1.03474e-12
1.81123e-12
1.62254e-11
1.83173e-13
-3.61321e-12
1.18708e-12
1.31967e-11
1.23365e-12
1.25218e-12
-9.30829e-12
9.20083e-13
1.97077e-12
-6.22079e-12
1.06608e-13
-3.3457e-12
-8.90667e-13
1.17377e-12
9.84012e-12
-1.05183e-12
1.29221e-12
-1.87869e-12
-1.52512e-11
-7.35654e-13
-2.51892e-13
1.54754e-13
-2.96549e-13
1.11687e-12
-1.01862e-11
1.42243e-12
6.15199e-12
4.13652e-13
1.61089e-11
-1.1126e-11
-4.06949e-13
6.3903e-12
-1.34249e-12
-9.85638e-12
5.44659e-12
-7.85128e-12
1.1074e-12
-7.8943e-13
3.16134e-11
1.12928e-11
8.61168e-14
-4.22773e-13
7.43953e-12
-2.08926e-13
7.70483e-13
9.49322e-12
-1.15775e-11
7.38585e-12
-1.03441e-11
7.56001e-15
-6.77827e-13
-6.25261e-12
-2.38177e-12
1.63431e-12
1.48327e-13
5.48664e-12
0
4.4504e-12
5.94417e-13
0
-5.95625e-13
5.93864e-13
3.56117e-12
-1.48185e-13
-3.99681e-12
-5.77156e-12
0
-1.00656e-11
-3.70448e-12
8.90266e-13
-3.41471e-12
4.87414e-13
-5.78065e-14
1.68179e-12
-3.31928e-13
2.54546e-12
-1.29119e-12
-2.6186e-12
-1.92038e-12
-3.96167e-12
-1.91488e-13
3.44671e-14
-3.55335e-12
5.89089e-12
5.11687e-12
7.9029e-12
9.93094e-13
6.06963e-12
-3.6288e-13
-5.8154e-12
3.32609e-12
1.51131e-13
3.10346e-12
-2.93681e-13
5.86976e-13
-2.53814e-14
-1.33694e-12
1.09274e-12
1.5297e-13
2.3602e-12
1.39477e-14
-6.28771e-14
3.62362e-12
-6.76173e-12
-2.95359e-13
5.23458e-12
-5.61174e-13
-3.1143e-12
1.89838e-13
-3.54921e-12
-3.77616e-12
4.18883e-12
6.10781e-13
1.17642e-12
0
1.10481e-12
1.32192e-13
2.4269e-13
8.90948e-12
-6.42363e-12
1.39618e-13
-3.26143e-13
-2.76659e-13
-6.75857e-12
2.94651e-13
-4.81996e-12
-1.92817e-12
-3.68614e-14
-8.43584e-12
3.46734e-12
5.05953e-15
-3.91466e-12
-3.99015e-12
6.9785e-12
-6.74025e-12
-7.78853e-12
2.07537e-12
-4.79746e-13
2.05252e-12
5.37384e-12
4.07737e-14
1.22364e-13
-3.16528e-12
-8.65966e-12
7.88224e-13
6.27131e-12
9.22293e-13
1.84409e-13
1.07099e-12
-1.50589e-13
3.44365e-12
-1.48459e-13
2.96745e-13
2.81611e-12
0
4.73474e-12
4.43896e-13
-7.4002e-13
-4.29673e-12
0
0
-2.66767e-12
4.74015e-12
1.03614e-12
-1.47941e-13
0
-3.40215e-12
-1.18353e-12
3.10835e-12
0
0
-3.01855e-12
8.89685e-13
-3.84342e-12
-3.49488e-13
8.30587e-14
-3.00999e-12
-6.34885e-15
7.88177e-12
4.28157e-12
2.35077e-12
3.21731e-12
9.38095e-13
-3.13047e-13
-5.00015e-13
-3.28717e-12
1.87207e-13
1.03763e-12
4.13381e-12
2.68026e-13
1.6375e-13
3.56512e-12
-5.57824e-13
9.59802e-12
1.06204e-13
-9.62957e-14
-8.09629e-14
-1.80219e-13
-2.47449e-13
-5.51862e-12
-4.96096e-12
1.19052e-13
-1.01057e-11
-1.40875e-13
1.39747e-13
3.63174e-12
3.62163e-15
7.60959e-14
-5.04501e-12
9.89314e-14
-4.09668e-13
5.05465e-12
6.14665e-13
-5.85371e-12
3.52919e-12
-1.44143e-13
-1.79658e-13
6.65012e-13
-8.26967e-12
8.79805e-13
2.94474e-12
4.03316e-13
4.26364e-12
1.63967e-13
3.47152e-12
-5.23573e-13
-4.15698e-12
6.48414e-14
1.22671e-12
1.44891e-13
-3.27453e-12
-4.942e-12
-3.9449e-13
2.44482e-13
-3.50723e-12
1.0301e-13
2.40926e-13
3.74157e-12
3.61287e-12
-5.01998e-13
3.1966e-13
-4.30854e-12
-4.73978e-12
-3.67378e-13
-3.48547e-12
9.52111e-14
3.57236e-12
5.27536e-14
-1.1453e-13
-5.09729e-14
3.18564e-12
-3.8531e-12
-4.73975e-12
0
2.95826e-13
-2.95764e-13
-4.43633e-13
-4.28918e-12
1.47991e-13
1.48111e-13
1.482e-13
5.77419e-12
5.18046e-12
-4.43868e-13
4.28954e-12
-3.40176e-12
-5.916e-13
0
2.95897e-13
-3.25617e-12
3.10908e-12
4.12782e-13
-2.46817e-13
9.13785e-14
4.26914e-12
-3.51468e-12
-9.13914e-14
-2.54453e-14
-1.18156e-13
-3.57356e-12
3.76946e-12
-5.64712e-12
-2.15547e-12
1.06878e-12
-4.17138e-14
-3.72776e-13
4.45382e-13
4.89255e-14
-5.9829e-13
-6.42324e-13
-3.31767e-12
-6.0524e-13
4.15615e-13
2.14338e-14
-4.26668e-14
8.56719e-14
-3.14899e-12
-2.12926e-14
1.44624e-13
7.71734e-14
-6.8189e-12
-5.97316e-13
-5.41293e-13
-4.29231e-12
3.86099e-14
6.61987e-13
-3.3754e-12
-7.51756e-14
-4.88163e-13
-1.33762e-13
-3.02602e-13
3.5677e-12
-1.37948e-13
-6.48462e-13
-3.64691e-13
2.76372e-13
3.08202e-12
4.08108e-12
3.3593e-12
-4.10864e-12
3.26506e-12
6.2826e-13
-2.80685e-12
3.04138e-12
-1.03502e-13
-5.51712e-14
3.63729e-12
1.3205e-13
6.56007e-13
2.9289e-13
3.20039e-13
-3.71586e-12
2.53126e-13
5.41667e-13
4.94937e-14
-4.16714e-12
5.23838e-14
-3.63043e-12
-3.5037e-12
3.60728e-12
-1.76623e-13
1.70518e-12
3.60164e-12
-3.21803e-12
3.57253e-15
8.92268e-13
4.79299e-12
3.88873e-12
-2.13019e-13
-2.82533e-14
-2.26493e-13
1.33241e-12
3.40401e-12
-3.55041e-12
5.9153e-13
4.73156e-12
4.73146e-12
3.40112e-12
1.47923e-13
-1.47988e-13
0
4.4393e-13
0
-3.40227e-12
2.95805e-13
0
3.69731e-12
-7.39494e-13
-4.58545e-12
1.47947e-13
0
4.58649e-12
5.55231e-13
-3.44404e-12
-6.69148e-13
-3.32655e-13
3.76825e-12
-3.35816e-13
-9.42092e-12
-4.45224e-14
1.76646e-13
1.33499e-13
1.96555e-13
4.54048e-12
2.35238e-13
9.427e-13
-4.73679e-14
-2.85177e-15
-6.51501e-13
5.61772e-14
2.54634e-14
-4.26132e-12
-1.01444e-12
-1.65686e-13
5.82591e-13
6.27071e-13
3.99595e-12
-1.42534e-13
4.25341e-12
-5.04488e-12
-4.82841e-12
-3.34146e-12
2.44375e-13
-8.4026e-12
-3.18823e-13
-9.35203e-13
3.44669e-13
4.30849e-13
-4.55448e-14
-3.88392e-13
2.13984e-14
3.9723e-12
3.67536e-13
-5.04587e-12
7.94498e-16
-3.42932e-13
-3.78809e-12
-9.93853e-14
1.72263e-13
5.89468e-13
4.49242e-12
3.30338e-12
-1.17005e-13
-1.45829e-12
-4.36777e-12
-3.96764e-13
-6.60974e-13
-1.04752e-13
2.13981e-13
-4.1306e-13
1.09383e-13
-1.08078e-13
-1.8331e-13
4.79238e-12
2.18227e-13
-5.24107e-14
-1.85091e-13
5.03814e-14
-4.72957e-12
4.60832e-12
0
-1.81647e-13
1.14084e-13
5.20965e-12
4.49284e-12
1.86409e-13
1.34444e-14
6.50034e-14
-6.92581e-14
5.91572e-13
-1.87831e-13
-3.69924e-12
-1.4794e-13
1.47902e-13
1.47874e-13
1.4786e-13
-4.43571e-13
2.95733e-13
4.7325e-12
0
-2.95913e-13
-5.91721e-13
3.40207e-12
0
-2.07047e-12
0
0
1.47884e-13
-1.47893e-13
-1.47911e-13
0
-5.91666e-13
7.09944e-12
1.47891e-13
0
4.5844e-12
5.91526e-13
4.58422e-12
-1.3309e-12
1.47892e-13
4.43712e-12
0
5.9156e-13
-3.84498e-12
2.07045e-12
1.47898e-13
7.39469e-13
1.47879e-13
-4.14035e-12
3.10537e-12
0
0
-3.54918e-12
0
0
-5.17745e-12
-4.43762e-13
-4.58468e-12
8.87206e-13
2.95722e-13
-4.43602e-12
0
-2.95763e-13
3.8453e-12
-3.4023e-12
-1.47952e-13
-4.43834e-13
1.77489e-12
8.13288e-12
-3.25281e-12
0
2.95759e-13
-7.39385e-13
-5.02831e-12
-1.4792e-12
-3.99447e-12
1.47937e-13
4.88069e-12
0
-1.47849e-13
1.47854e-13
1.47881e-13
-3.69682e-12
-3.69689e-12
5.91564e-13
0
-1.47898e-13
-1.47871e-12
-4.58331e-12
0
0
0
-1.62666e-12
5.17532e-12
1.47864e-12
5.32319e-12
-1.47861e-13
-1.47846e-13
0
5.61837e-12
3.99247e-12
-4.43717e-13
4.28877e-12
3.84467e-12
2.51361e-12