/*--------------------------------*- C++ -*----------------------------------*\
  =========                 |
  \\      /  F ield         | OpenFOAM: The Open Source CFD Toolbox
   \\    /   O peration     | Website:  https://openfoam.org
    \\  /    A nd           | Version:  10
     \\/     M anipulation  |
\*---------------------------------------------------------------------------*/
FoamFile
{
    format      ascii;
    class       volScalarField;
    location    "0.2";
    object      gradTx;
}
// * * * * * * * * * * * * * * * * * * * * * * * * * * * * * * * * * * * * * //

dimensions      [0 -1 0 1 0 0 0];

internalField   nonuniform List<scalar> 
46825
(
1.49086e-13
-1.32471e-13
-4.40528e-12
-4.24073e-14
7.64286e-12
-7.16497e-13
-6.38851e-12
7.31961e-13
2.79783e-12
-4.47299e-13
2.98106e-13
1.32386e-13
1.74409e-13
1.01043e-12
9.91995e-14
-1.1225e-12
-4.66948e-12
2.84402e-13
5.49177e-12
2.98125e-13
-3.87152e-12
9.657e-13
3.89858e-12
-4.9168e-12
-3.72849e-12
-9.99948e-14
-4.92741e-13
5.48171e-13
7.20227e-13
-1.48912e-13
-1.48691e-13
1.4107e-13
-4.26875e-12
-5.89651e-13
4.33746e-12
2.29891e-13
5.16371e-12
-4.04409e-13
-4.72872e-12
2.97386e-13
3.26811e-12
4.12249e-12
3.45457e-13
-3.76315e-13
1.89186e-13
-1.34092e-13
4.90093e-12
-2.56817e-13
-4.33696e-12
4.45643e-13
-3.26849e-12
-3.78404e-13
3.21104e-13
-3.34525e-12
4.32714e-12
-2.30845e-14
-4.4515e-12
-1.25597e-13
-1.53433e-13
2.97125e-13
2.826e-12
2.43635e-12
9.63828e-14
-3.57415e-12
-2.52288e-12
5.91091e-13
-9.61105e-13
5.66271e-14
3.76544e-13
2.97462e-13
-4.46889e-13
-1.42844e-13
3.29603e-12
-2.6642e-13
-3.22391e-12
2.53793e-13
-3.78735e-12
-1.62414e-14
4.05674e-12
0
1.491e-13
-3.36033e-12
-2.28778e-13
3.28008e-12
2.18935e-13
-2.59895e-13
6.50762e-13
3.31562e-13
-5.81075e-13
-1.49101e-13
1.49119e-13
-1.23762e-15
-9.05901e-13
-6.98666e-14
5.94183e-13
-1.82756e-13
-4.87199e-13
-3.49144e-14
5.29112e-13
0
-2.98394e-13
-8.98411e-14
1.61349e-13
4.0865e-13
5.60911e-15
-1.67543e-14
3.4282e-12
-1.79765e-13
1.39586e-13
3.43196e-12
1.49316e-13
-5.95427e-14
-4.64369e-12
3.52513e-12
4.61753e-12
-3.77816e-12
4.87635e-14
4.34365e-13
7.39383e-14
1.49332e-13
0
7.85526e-13
7.65762e-12
-7.78258e-12
8.90881e-13
1.01063e-13
-4.99388e-13
-1.26397e-11
2.20699e-12
-1.49297e-13
-2.98387e-13
-1.64482e-12
1.14907e-12
8.55464e-12
-2.39084e-12
-6.3983e-12
4.55001e-15
1.06797e-12
-2.24291e-13
1.49197e-13
4.47474e-13
1.68256e-12
-7.88891e-12
7.51059e-12
6.37836e-13
-8.89857e-12
9.41634e-12
-7.90772e-12
1.53299e-12
-1.04409e-12
-1.49173e-13
-1.08444e-12
2.39782e-12
2.26857e-13
-3.94749e-13
2.12766e-13
-7.20012e-14
3.75483e-13
4.11329e-13
2.98332e-13
3.58165e-12
-1.12189e-12
-3.74194e-12
4.46094e-13
9.94939e-12
-9.95207e-12
-9.48953e-14
2.35403e-12
-7.47898e-13
0
0
1.45947e-12
-1.96916e-12
-1.91637e-12
2.05534e-12
-2.73324e-13
1.90439e-13
-4.62422e-15
-2.24531e-12
6.12284e-12
3.43529e-12
3.72626e-12
-3.23168e-14
-1.39583e-12
3.87883e-12
1.08378e-12
-7.92021e-12
-6.03013e-14
4.54715e-12
4.48082e-13
2.98441e-13
-5.36732e-14
-4.59298e-13
-3.27603e-13
-7.08003e-14
7.82826e-13
2.03454e-13
-2.15123e-13
-4.03712e-12
-3.43228e-12
-5.22071e-12
-9.58109e-13
4.79349e-13
-4.54777e-12
-7.28489e-13
5.40255e-12
3.85636e-14
-5.64734e-12
-8.88615e-14
1.49191e-13
6.56552e-12
6.96202e-12
-2.22343e-13
1.65892e-13
3.91084e-13
-3.58793e-14
-2.9646e-13
7.43969e-12
-7.12954e-12
-1.49247e-13
-4.47221e-12
-4.26515e-12
7.21909e-13
-1.20613e-12
3.57927e-13
1.34598e-13
-8.82124e-13
-6.81206e-12
7.02225e-12
2.98189e-13
-8.4907e-12
-6.52437e-12
4.96626e-13
-2.30714e-08
-2.40756e-09
5.43716e-10
7.20366e-09
3.84925e-10
1.28495e-11
1.08748e-11
1.49007e-13
1.36861e-11
-1.81386e-11
-3.35431e-08
1.05681e-09
-2.46474e-10
-2.55631e-09
1.80888e-10
-1.84058e-13
-8.49349e-12
2.68224e-12
1.75702e-15
8.82124e-12
-3.44984e-08
1.13734e-09
-2.58913e-10
-2.70302e-09
1.8435e-10
-4.68017e-14
-2.98014e-13
-4.76744e-12
3.0647e-12
3.79443e-13
-2.99104e-08
7.84081e-10
-1.83349e-10
-1.72134e-09
2.69658e-10
-2.62406e-13
-1.93662e-12
1.78936e-12
-7.91073e-12
1.66117e-11
9.54431e-12
-1.66383e-12
-1.44636e-12
2.68399e-11
-5.61992e-12
-3.80528e-13
4.7714e-12
2.98511e-13
2.78577e-13
-1.09583e-11
1.15403e-11
-1.11191e-12
1.83201e-13
6.20348e-13
-8.83541e-12
8.24046e-12
-5.97031e-13
1.49171e-13
-1.16642e-13
4.61549e-14
-1.93481e-13
4.41304e-12
-1.47627e-13
-3.8753e-12
-7.83241e-14
-6.69056e-14
1.49187e-13
-4.46425e-12
2.9307e-13
4.22445e-12
-3.4853e-13
3.09059e-12
3.42028e-12
-3.20028e-12
-2.11377e-12
-1.08841e-13
-1.04198e-12
9.80437e-12
9.59902e-12
8.87972e-13
-8.33528e-12
-1.43658e-12
4.67176e-13
1.37158e-11
-4.14411e-12
-4.18578e-13
-4.45838e-13
-7.37934e-13
2.38028e-12
-2.50801e-10
-1.5979e-08
-4.16229e-10
1.9201e-10
1.22936e-09
3.83323e-08
1.91931e-08
-5.75798e-12
-6.16019e-12
1.40292e-09
3.71182e-06
-0.323837
-0.00172595
0.000108437
0.00464868
0.240158
1.15837e-07
-5.8681e-13
-2.63657e-12
1.3863e-09
3.82162e-06
-0.489347
-0.00590049
0.000350399
0.0167013
0.317912
8.84769e-08
-3.6622e-12
4.68733e-12
1.384e-09
3.84344e-06
-0.49167
-0.00616371
0.000370013
0.0171672
0.319048
8.67129e-08
3.80838e-12
2.93364e-12
1.40054e-09
3.77192e-06
-0.483688
-0.00609313
0.000349037
0.0170077
0.314274
9.34155e-08
-1.46669e-12
1.18093e-12
8.423e-10
3.94562e-06
0.000810079
-0.000169536
-0.00061267
-0.000938275
-0.00444232
-9.93513e-09
-8.8571e-13
1.48588e-13
-1.20539e-13
8.85931e-10
1.19712e-09
9.51912e-12
6.65763e-14
-1.13019e-10
-1.12553e-09
-6.54104e-13
1.04026e-12
-3.5714e-12
-2.12629e-13
4.33663e-12
-2.03517e-13
-9.98732e-14
2.44448e-13
3.25992e-12
-1.76737e-13
-2.64477e-12
5.95335e-13
0
4.28008e-12
4.96659e-12
9.54254e-13
-4.86683e-12
-9.90055e-13
-2.12355e-13
1.89435e-14
-4.29857e-14
-4.01412e-12
2.96633e-13
1.52941e-12
9.72448e-12
1.44611e-10
4.22106e-11
-3.30149e-12
-9.12999e-11
-1.19436e-11
-2.02004e-11
1.63232e-12
-2.49723e-12
-1.83364e-11
-3.40608e-07
-0.000731585
0.000260439
4.34438e-05
-0.000261563
0.000284114
1.15572e-07
-4.99635e-12
-1.30633e-12
7.96381e-10
-0.236715
1.62869e-05
-3.77478e-12
-2.74664e-12
-1.30497e-08
-0.288885
6.3814e-05
-7.22869e-13
1.59025e-12
-1.19431e-08
-0.289466
6.37748e-05
6.79434e-12
-4.35528e-13
-1.5289e-08
-0.288156
6.34116e-05
1.16109e-12
1.46943e-13
1.85002e-11
0.0113416
-5.37554e-06
-3.23238e-12
5.63805e-12
1.86053e-12
1.40872e-09
3.65145e-07
6.68044e-08
-1.16541e-08
-2.87291e-07
1.95575e-07
1.43506e-11
-4.00666e-12
1.4862e-12
-2.73257e-12
-5.10141e-13
7.10723e-12
-2.62134e-13
-2.46665e-12
2.61909e-12
-8.18916e-13
4.97356e-13
3.41896e-12
-3.71662e-12
4.19581e-12
3.69867e-12
-4.38399e-12
1.62046e-13
-1.06418e-13
-3.796e-14
3.38916e-13
-5.7754e-14
-1.4871e-13
-4.75153e-12
-6.28306e-12
8.91037e-12
-5.75728e-11
5.65901e-11
5.94683e-12
-1.38363e-10
-2.60943e-11
-4.57884e-14
4.45611e-13
8.82266e-13
-3.29657e-11
-3.55056e-07
0.00838936
0.000225249
4.54554e-05
-0.000401804
0.000332476
1.19923e-07
2.94081e-13
4.35169e-13
2.84087e-09
-0.24303
3.02935e-05
-5.51171e-12
-1.44322e-13
-1.45959e-08
-0.301466
8.14567e-05
7.21617e-12
2.88665e-12
-1.29653e-08
-0.302301
8.17967e-05
8.51496e-12
4.20774e-12
-1.65934e-08
-0.300465
7.97422e-05
-2.75568e-12
2.05943e-12
4.86957e-11
0.0118008
-5.66057e-06
-1.91163e-12
8.61567e-12
1.94806e-14
1.49286e-09
4.02114e-07
1.05176e-07
-1.89464e-08
-4.3422e-07
2.19646e-07
2.09938e-11
5.94221e-13
3.12206e-12
-4.64542e-12
-3.15849e-12
4.80406e-12
5.06059e-13
-2.94671e-13
-5.33266e-12
-3.37074e-12
8.60602e-12
7.13745e-12
-1.48749e-13
8.99643e-12
3.60859e-12
-5.49094e-12
-4.35077e-14
-4.87544e-12
1.31525e-13
1.2361e-12
1.85893e-13
3.42232e-12
-4.75561e-12
-7.49715e-12
1.19014e-12
-7.19242e-11
5.10789e-11
4.71285e-12
-1.33561e-10
-2.67464e-11
7.69191e-14
0
1.17735e-12
-2.88027e-11
-3.57445e-07
0.00844102
0.000225655
3.03939e-05
-0.000402501
0.000335269
1.20873e-07
-7.35766e-13
-4.06407e-12
3.98424e-09
-0.24335
3.06456e-05
2.9023e-13
-1.01073e-12
-1.27344e-08
-0.30209
8.18203e-05
8.6631e-13
-2.31046e-12
-1.15665e-08
-0.302887
8.21282e-05
4.47627e-12
1.74226e-12
-1.53927e-08
-0.301028
7.99848e-05
5.80618e-13
7.36146e-13
5.19094e-11
0.0118201
-5.67552e-06
8.83211e-13
1.4868e-13
4.37732e-14
1.47447e-09
4.13147e-07
1.10811e-07
-1.87969e-08
-4.39189e-07
2.20348e-07
1.90311e-11
-1.18959e-12
0
4.94122e-12
3.08078e-13
-9.97774e-12
-5.96236e-13
5.74442e-12
3.72451e-12
-3.65842e-13
-3.17961e-12
0
5.20884e-12
-3.53469e-13
-5.5223e-12
4.26381e-13
5.10879e-14
-9.16092e-13
-4.32264e-12
4.89627e-12
4.58062e-12
-4.46598e-12
2.9739e-13
-6.28757e-13
6.62007e-13
-7.6556e-11
5.51923e-11
-9.13417e-12
-1.22315e-10
-2.82359e-11
1.88097e-13
1.48743e-13
7.36281e-12
3.651e-12
-3.55301e-07
0.00844738
0.000225678
1.52546e-05
-0.000417584
0.000335385
1.20353e-07
1.32509e-12
-1.30716e-12
3.93217e-09
-0.243366
3.07047e-05
1.30682e-12
4.62366e-12
-1.27373e-08
-0.302105
8.18517e-05
1.44486e-12
-8.67014e-13
-1.14865e-08
-0.302948
8.21432e-05
0
-5.81131e-13
-1.53244e-08
-0.301042
7.72529e-05
1.45293e-13
0
4.12778e-11
0.0118183
-2.75814e-06
2.06261e-12
1.04137e-12
-2.96339e-12
1.46481e-09
4.12286e-07
1.11417e-07
-1.84158e-08
-4.40916e-07
2.20327e-07
2.51539e-11
1.33913e-12
-3.86974e-12
-2.90193e-12
3.94636e-12
-2.95998e-12
5.15676e-14
5.59233e-12
-4.91182e-13
4.98631e-13
3.79944e-13
-1.48862e-13
-4.46642e-12
-4.95899e-12
4.00454e-12
4.27521e-12
-4.27034e-12
6.51935e-13
5.23078e-13
-5.08497e-12
-1.10445e-12
-1.48922e-13
-1.48752e-13
6.46746e-14
-8.50061e-14
-5.60787e-11
3.96393e-11
8.08932e-12
-1.20947e-10
-4.2354e-11
7.02343e-12
-2.23197e-12
3.9782e-12
1.13253e-11
-3.55492e-07
0.00843789
0.000225535
3.03793e-05
-0.000417342
0.000335462
1.20706e-07
-1.47323e-13
-3.92588e-12
3.10122e-09
-0.243276
3.08089e-05
4.36122e-13
7.23544e-13
-1.36342e-08
-0.301909
8.16539e-05
0
-7.38086e-12
-1.23935e-08
-0.302705
8.19311e-05
-3.90756e-12
-8.72698e-13
-1.63555e-08
-0.300842
7.93219e-05
-7.41775e-12
0
4.53309e-11
0.0118113
-1.3372e-05
1.91631e-12
-1.48825e-13
-2.05085e-12
1.46684e-09
4.09561e-07
1.09407e-07
-1.56003e-08
-4.3124e-07
2.18698e-07
1.84021e-11
2.08382e-12
0
3.30311e-12
-1.93354e-13
-3.59285e-12
4.14876e-13
3.06636e-14
1.27769e-14
3.91354e-12
-1.12214e-13
-3.57395e-12
-2.97844e-13
-2.18493e-13
5.80003e-13
3.71277e-12
-2.0308e-13
-3.48748e-12
-1.42591e-13
5.84756e-14
-1.16876e-13
-1.4896e-13
2.97597e-13
-1.02543e-12
-9.39144e-12
-1.40606e-10
-2.60262e-11
1.21731e-11
2.1041e-11
-3.25701e-11
1.42422e-11
-4.0187e-12
4.42369e-12
2.16055e-12
-3.51615e-07
0.00719596
0.000176097
1.47889e-05
-0.000306426
0.000310727
1.18854e-07
-4.12849e-12
-1.89438e-12
8.89326e-09
-0.239403
2.08916e-05
1.01989e-12
-2.46752e-12
7.71275e-09
-0.293304
2.76186e-05
-1.01599e-12
-8.70962e-13
8.81343e-09
-0.293938
2.74204e-05
5.80608e-13
6.1219e-12
4.51144e-09
-0.29252
2.94697e-05
-4.37186e-13
-1.47514e-13
-4.27594e-12
0.0115015
-5.15263e-06
1.17994e-12
1.48861e-13
7.70539e-12
1.29359e-09
3.06176e-07
3.39878e-08
-4.33466e-09
-1.38786e-07
1.74505e-07
1.28793e-11
0
0
-5.90019e-14
-4.98021e-12
-4.66828e-13
5.92162e-12
8.69391e-13
-6.65774e-12
-3.78989e-13
6.10142e-12
0
-8.78762e-12
-4.33102e-12
5.14545e-12
5.43966e-13
3.34556e-14
5.08263e-12
6.51801e-14
-5.59155e-12
-8.69366e-14
0
-8.18531e-12
-5.74685e-12
-1.48846e-12
1.29332e-12
1.32421e-13
-8.99416e-14
3.67173e-13
-5.88845e-13
-1.61398e-12
-1.0419e-12
-1.76938e-12
9.90064e-13
-3.51066e-09
4.50628e-08
1.18454e-09
8.59425e-11
-2.28809e-09
-2.95564e-07
5.87415e-10
-1.32706e-12
-2.18563e-12
7.18379e-12
-5.55983e-06
-1.79588e-08
6.11963e-12
-1.45149e-13
2.1521e-12
-5.69604e-06
-1.88315e-08
1.45143e-13
4.35474e-12
4.26244e-13
-5.69517e-06
-1.8897e-08
1.59664e-12
4.95512e-12
5.63889e-12
-5.68563e-06
-1.86305e-08
1.31149e-12
-5.89996e-13
-1.83505e-11
-4.79157e-06
1.35128e-08
-1.62231e-12
8.9326e-13
-6.63772e-12
1.1459e-11
-1.66827e-10
-1.37002e-11
3.11429e-12
4.39924e-11
-6.96375e-10
-1.91137e-14
2.9776e-13
0
-3.39952e-13
3.19672e-14
3.56582e-13
-3.09542e-12
-1.90496e-13
2.71231e-12
1.67327e-13
1.31407e-12
2.97928e-13
0
1.59905e-14
-2.64827e-14
6.26579e-12
3.93828e-12
-5.82503e-12
3.40825e-14
-3.92242e-12
-4.96944e-12
2.68123e-12
8.9291e-13
-1.10783e-13
1.19138e-12
9.78875e-13
-1.00591e-12
-2.59625e-13
7.49478e-12
1.47102e-12
-8.80169e-12
1.33939e-12
-1.47344e-12
-5.64572e-12
1.52565e-11
1.35794e-11
-1.37365e-12
-1.59707e-11
-1.50721e-12
-6.86121e-12
2.72617e-12
-1.62091e-12
-1.45394e-12
3.58402e-12
-8.16838e-13
-1.16045e-12
-5.23455e-12
-8.39379e-12
-6.04728e-12
1.11532e-11
7.3867e-12
-2.17076e-12
2.89456e-13
-3.71496e-13
-1.3645e-12
4.39642e-13
-1.44721e-13
0
-8.87118e-14
6.48668e-12
2.91421e-13
-5.96158e-12
-1.01699e-11
-2.95446e-12
-4.74553e-12
6.29185e-12
-4.42113e-12
-2.53066e-12
2.95111e-12
-6.0268e-13
-1.93902e-12
4.21401e-12
-1.98954e-12
-7.1147e-13
1.80539e-13
-2.82458e-14
-2.23282e-12
4.46836e-13
6.10382e-14
-7.60122e-13
1.05364e-13
-2.10574e-14
-6.95026e-13
-7.95109e-14
-4.54708e-12
4.87319e-13
4.76654e-12
-8.1914e-12
-2.36777e-13
7.93966e-12
-3.192e-12
3.71977e-12
3.23105e-12
-3.21484e-12
-2.71363e-13
1.97568e-13
-1.48942e-13
2.97608e-13
2.22389e-13
-7.44735e-12
7.91632e-12
2.29925e-13
-1.84179e-13
-1.09922e-11
1.73597e-11
-6.08394e-12
1.93439e-12
2.94572e-13
-9.50026e-13
1.85679e-11
0
0
1.47938e-12
-1.94754e-12
-1.48528e-12
1.20929e-12
-2.06215e-12
-1.45253e-13
4.31888e-13
1.49369e-12
-5.70531e-13
0
0
1.26753e-12
6.69563e-12
1.46454e-13
-2.89052e-13
-1.15629e-12
2.08139e-13
-2.50252e-12
4.25602e-12
-2.60154e-12
-4.35818e-13
-1.23804e-13
9.4415e-13
1.75032e-12
5.08418e-12
-2.94653e-13
2.23261e-13
6.91365e-12
4.17155e-12
-7.07078e-12
-4.31637e-12
-7.16859e-12
-2.92868e-13
-3.98522e-12
-1.9837e-13
2.52313e-13
-7.99972e-13
6.54206e-13
-2.83161e-13
-1.04183e-12
-3.72334e-12
-7.77647e-12
-1.36947e-13
7.77189e-12
3.5122e-12
-3.93111e-12
-2.12715e-12
1.19674e-13
-1.18359e-12
-1.4894e-13
7.44638e-13
6.37041e-13
-4.60327e-15
-3.40821e-12
1.82888e-13
3.72636e-12
3.64988e-12
4.588e-12
-3.89634e-12
-4.91475e-12
0
-1.00667e-12
5.95795e-13
7.82495e-12
-6.82808e-12
-7.91525e-12
7.16367e-12
2.05952e-12
-1.97367e-12
6.24942e-12
1.17819e-12
-1.44172e-12
-1.57866e-12
4.06824e-12
3.36256e-11
-1.23377e-11
3.80152e-13
-2.05243e-12
7.84433e-13
-2.94546e-13
1.45225e-13
-5.04636e-13
2.46757e-11
4.36058e-12
5.80899e-12
5.05726e-12
3.79433e-12
-9.79776e-13
6.88733e-12
-3.32327e-12
5.77993e-13
-1.85312e-12
6.94348e-12
-3.08348e-12
1.73393e-12
-1.30717e-12
1.01299e-11
1.29746e-12
2.77255e-12
3.48561e-12
2.94609e-12
-1.86259e-12
4.32159e-13
-1.81038e-12
4.41881e-13
-4.61371e-12
-5.80755e-12
-1.20785e-12
1.33762e-12
-7.05759e-13
5.15135e-13
-6.72331e-12
7.41291e-12
-5.76246e-13
0
0
1.83234e-13
1.32607e-13
-4.57524e-13
-7.22307e-13
-4.45264e-12
4.81568e-12
6.87065e-12
-3.78316e-12
-1.93609e-12
2.38293e-12
2.62913e-12
7.38609e-13
4.84325e-12
-1.39834e-13
-1.26958e-12
1.64581e-13
-3.5282e-12
4.31027e-12
4.3192e-12
-1.19038e-12
8.59858e-13
2.97885e-13
1.03108e-11
-1.0087e-11
7.59444e-12
-7.81845e-12
2.94186e-13
7.32514e-12
-1.488e-12
8.54262e-12
7.63023e-12
1.46083e-11
0
0
-7.38235e-13
3.59112e-11
-2.03452e-11
6.22077e-12
-1.9147e-12
-4.64856e-12
-1.70001e-12
-1.59587e-12
-3.70642e-12
1.74318e-12
-1.87916e-12
7.91733e-12
-1.63175e-11
-3.44295e-12
1.01185e-12
-8.96251e-12
-3.39133e-12
2.23079e-11
-2.42211e-12
1.44554e-13
-7.26411e-13
-2.80735e-13
-4.91123e-13
-6.20012e-12
1.16222e-12
4.71414e-12
-8.83247e-12
1.6421e-11
-9.0027e-12
8.39657e-12
8.03685e-12
4.70755e-12
1.0568e-11
-9.83779e-12
1.0663e-11
-2.2483e-11
1.04259e-11
7.1146e-13
3.46639e-13
-2.53006e-12
0
5.22833e-13
-4.68012e-12
-7.43345e-14
1.01275e-11
-2.08916e-14
-5.11781e-12
-1.80661e-13
-1.47229e-13
0
5.95762e-13
3.28794e-13
6.40781e-13
-4.03458e-14
-3.85536e-13
-1.5451e-12
1.47457e-13
1.72052e-12
3.4018e-12
3.57479e-12
-3.86889e-12
9.46207e-13
-8.63533e-12
1.14584e-12
5.43031e-12
-6.8693e-12
5.16394e-13
0
-9.97197e-14
-1.78578e-12
4.86239e-12
5.02089e-12
1.4862e-13
0
-2.3576e-12
-1.54926e-12
5.74632e-13
4.56232e-12
2.46707e-12
0
-4.36341e-13
4.05277e-13
3.63011e-14
-7.26042e-14
3.05444e-12
1.44808e-13
2.64431e-13
7.45253e-12
2.92633e-12
-1.44808e-13
-1.30332e-12
2.5454e-12
3.98431e-12
-3.00496e-12
5.79249e-13
-6.69145e-12
-5.42542e-12
3.83706e-12
-6.5575e-13
0
-1.17905e-12
1.89916e-12
8.78199e-12
-1.19217e-11
2.94749e-12
-3.72114e-12
-4.68485e-12
-6.03474e-13
-1.05558e-11
1.01387e-11
1.49014e-13
-2.21431e-13
1.4627e-13
4.86682e-14
-4.46525e-13
6.40475e-12
2.47338e-13
-6.53022e-12
-5.85758e-12
-5.0328e-13
5.43412e-12
5.74123e-13
5.19764e-12
-1.07801e-13
-5.36214e-12
-1.48961e-13
2.3103e-13
-4.75557e-12
-2.62121e-13
4.77529e-12
-1.86505e-13
1.45209e-14
5.87723e-14
-1.37912e-13
-2.9797e-13
1.0418e-12
5.01362e-14
1.13107e-11
-2.04349e-11
9.0687e-12
-9.22984e-12
1.00338e-11
1.16363e-12
-2.48206e-12
-1.33973e-12
0
-1.25095e-12
2.2301e-12
1.2134e-13
3.24072e-11
-1.57104e-12
-6.01426e-13
5.14891e-13
-2.98579e-12
-1.47476e-13
-1.31183e-12
-4.63899e-13
-3.70345e-12
8.60676e-12
-1.31185e-12
1.45216e-13
1.82115e-13
4.33047e-12
-2.13749e-12
-2.90434e-13
-8.71334e-13
-9.98759e-13
-1.40078e-11
1.84569e-12
1.45222e-12
1.1662e-12
-4.44367e-12
3.56489e-12
-2.20234e-12
1.45771e-13
-2.06516e-12
2.09062e-12
2.14965e-12
3.65197e-13
-2.80251e-12
1.04228e-12
-6.96426e-12
7.81289e-12
-2.25489e-12
3.97306e-13
-4.51743e-13
-1.30574e-11
1.33228e-11
2.4845e-13
-4.61567e-12
0
-2.16962e-13
1.95021e-13
-1.06623e-13
1.72653e-14
5.90461e-12
4.31656e-12
-6.01186e-12
-5.12226e-12
-4.46956e-13
5.95862e-13
8.71046e-13
-6.26779e-13
-1.44433e-13
4.60438e-13
2.01162e-14
-1.1864e-13
5.73316e-14
-1.75665e-13
-2.98006e-13
-4.61377e-12
-4.14025e-12
-2.97829e-13
-3.44262e-13
-1.01375e-13
5.53301e-13
4.30855e-13
2.94504e-13
1.11032e-13
5.21095e-12
4.71864e-12
1.91521e-12
-9.80234e-13
-1.05702e-12
-1.33246e-12
-1.48958e-11
7.45229e-12
3.9011e-13
3.824e-13
-1.32734e-12
1.45656e-13
-2.25174e-13
-6.54719e-12
-7.29227e-14
-6.26348e-12
-1.59549e-12
-7.55186e-12
4.76668e-12
1.16454e-11
1.45049e-13
0
-6.66585e-13
0
5.83278e-12
-1.16042e-12
-1.01963e-12
2.4027e-12
-9.22569e-12
-5.58011e-12
-4.80677e-12
2.95002e-12
-1.94941e-12
-8.60965e-13
3.36773e-12
1.47496e-12
1.78708e-12
2.39247e-13
-4.77257e-13
4.52461e-13
6.8766e-14
-9.36572e-12
9.23757e-12
6.93601e-12
-6.64274e-12
2.97843e-13
-6.40703e-12
-6.54862e-13
6.59521e-12
1.56887e-13
-1.66852e-13
4.02823e-13
-1.50761e-13
-6.30607e-12
1.33376e-13
6.10903e-12
0
-9.82908e-14
2.33299e-13
2.54261e-13
1.92884e-14
-8.20911e-14
-3.78233e-13
3.71376e-14
-5.02564e-14
1.48993e-13
1.48796e-12
2.00189e-15
7.15038e-12
-7.74647e-12
1.23883e-12
-2.07502e-12
7.54082e-13
2.94246e-13
-1.06768e-13
-6.54967e-12
2.21037e-12
-3.16471e-12
1.43159e-12
-5.79094e-13
6.18951e-13
1.01779e-13
6.67734e-13
2.96868e-13
0
-3.83166e-12
1.45381e-13
-6.7812e-12
1.61607e-11
-1.32783e-12
-4.65214e-12
-7.23316e-13
7.53795e-12
-9.5957e-12
2.19439e-12
1.88068e-12
2.60402e-12
1.01674e-13
-9.4093e-14
-5.64332e-12
-5.3528e-12
1.45374e-13
-6.93144e-13
8.08284e-12
6.48491e-12
-2.90756e-12
-1.47386e-13
-1.91777e-13
4.46127e-12
2.19435e-12
5.01126e-12
7.44463e-12
5.66381e-12
2.11311e-12
-2.23172e-12
1.33285e-12
-1.16521e-13
-1.18405e-13
2.53805e-13
-1.48404e-13
5.65821e-12
-8.93973e-13
-4.48386e-12
7.7162e-13
3.39414e-13
-8.40223e-12
-1.02844e-13
-3.316e-13
8.86423e-14
8.56397e-12
4.76799e-12
0
4.173e-12
2.73863e-13
-4.10867e-12
-3.33234e-14
-5.58672e-13
2.61094e-14
1.93411e-13
-1.08082e-13
2.98008e-13
4.01739e-12
-1.17239e-11
8.04502e-12
8.42426e-15
8.21644e-14
-3.29993e-13
-1.05775e-11
1.02185e-11
8.99072e-13
-1.48856e-12
-5.59841e-12
-2.41428e-12
9.78279e-13
-1.21735e-11
-1.80492e-11
8.71635e-12
2.82232e-12
-1.71137e-11
1.46744e-11
-2.50458e-12
-1.45302e-13
4.02386e-13
7.52098e-12
2.61579e-12
4.93973e-12
2.89105e-13
-1.40098e-12
1.02905e-12
-9.59548e-12
1.73467e-12
-1.301e-12
8.81986e-12
-1.01747e-11
2.2752e-12
1.73471e-12
4.35883e-13
1.62013e-12
1.70097e-12
1.44426e-11
-7.41022e-12
-1.47352e-13
5.6632e-13
-5.04097e-12
3.65958e-12
-2.94725e-13
-1.0422e-12
-1.1093e-12
6.3227e-13
9.16398e-13
-5.24341e-13
9.79616e-12
-9.78523e-12
-1.57143e-11
1.64498e-11
-4.467e-13
-2.98011e-13
3.57513e-12
-5.13349e-12
-3.68766e-12
2.48918e-12
-8.89302e-14
-2.56789e-12
-4.88216e-12
5.75394e-12
5.06631e-12
-4.47031e-13
2.51619e-14
-3.92428e-12
3.4292e-12
1.21922e-13
-1.17718e-11
4.23744e-12
7.97665e-12
4.50041e-12
3.72644e-12
-1.04191e-12
8.70221e-13
-1.19187e-12
1.17526e-13
1.12647e-13
-1.71372e-13
-2.59699e-13
-1.15052e-12
1.8992e-12
5.50952e-12
-1.03166e-12
1.44748e-11
-1.98165e-11
-1.85509e-11
8.05546e-13
1.62471e-12
-1.76567e-11
1.56615e-12
-2.94911e-14
-4.12662e-12
-3.7797e-12
-3.13553e-12
2.07213e-11
1.30823e-12
-1.59887e-12
2.89271e-13
9.72515e-12
-3.09259e-12
4.61533e-12
-1.73563e-12
1.44639e-12
5.86776e-14
3.99758e-12
3.44986e-12
1.44643e-13
-2.90731e-13
-7.87974e-12
1.13079e-11
-2.26135e-12
0
0
-1.17383e-13
-1.44035e-13
1.06818e-12
-3.24318e-12
1.10211e-11
8.39964e-12
9.05971e-13
-5.66194e-12
5.74418e-12
1.2186e-15
5.24882e-13
-2.63091e-13
-7.30199e-12
2.08529e-12
0
3.87399e-13
1.78475e-13
2.29953e-14
-1.34039e-13
-4.53101e-13
4.11639e-13
7.49281e-13
-3.47323e-13
-5.96255e-13
4.47369e-13
-1.81076e-13
-4.97741e-12
-3.59385e-12
4.60881e-12
3.72039e-12
-3.56073e-12
-8.31601e-12
-1.0173e-12
3.57987e-12
1.63877e-12
-5.64613e-13
1.19163e-12
9.51063e-15
-7.64129e-15
-2.72805e-13
6.36907e-14
2.41604e-13
-8.56912e-12
3.12964e-12
7.96979e-12
6.66523e-12
-4.32137e-14
1.15909e-12
-1.3007e-11
1.74777e-11
9.00176e-13
3.50995e-13
1.96775e-12
-1.18081e-12
-5.39166e-12
-1.19796e-12
-2.65784e-11
-4.93761e-12
-4.66256e-12
-4.6423e-12
-5.47464e-12
8.01329e-13
-9.07294e-12
1.4506e-13
-4.64239e-12
-5.77265e-13
-4.53968e-13
-5.86448e-12
5.80267e-13
1.45719e-13
7.35071e-12
-1.1772e-11
-1.89459e-12
-1.02006e-12
3.39523e-12
7.96201e-12
1.68475e-11
-9.06933e-12
2.95273e-13
-1.34155e-12
-6.52357e-13
9.05518e-13
-7.5824e-12
7.5939e-12
-3.34952e-13
-6.62039e-12
1.65755e-11
-9.52702e-12
0
8.50217e-12
4.50911e-12
6.84681e-13
1.98632e-13
-8.86376e-12
3.36413e-12
3.5996e-12
-6.58722e-12
-1.33341e-12
1.49172e-12
-1.49254e-13
2.03212e-13
-1.49095e-13
-5.3814e-13
-1.4159e-13
-4.43121e-14
3.79548e-12
3.56051e-12
-4.32189e-12
-4.03051e-12
-1.93983e-12
-4.03309e-12
-7.15095e-12
6.75491e-12
8.89217e-14
2.16181e-13
8.51938e-14
8.5825e-13
-8.46972e-13
-3.73128e-12
8.88821e-12
-1.31652e-12
5.23007e-12
-5.78388e-13
1.23804e-12
1.47249e-11
-5.18135e-14
1.96176e-12
4.80707e-13
4.44542e-13
0
-1.14187e-13
2.62572e-13
1.37719e-12
1.32103e-12
0
6.99838e-12
6.64978e-12
-6.64697e-12
-2.63454e-12
0
2.40098e-13
-8.38908e-13
-1.46326e-13
-1.46374e-13
6.45812e-12
5.33492e-12
2.73676e-13
7.64272e-12
-1.76166e-12
5.92673e-12
6.47104e-12
-1.43637e-13
-1.12459e-11
3.11261e-12
4.77679e-12
4.55383e-12
9.34605e-12
-1.93285e-11
1.01338e-11
-6.25679e-13
3.89542e-13
-9.45031e-13
7.33892e-12
1.49312e-13
2.98556e-13
4.85458e-13
3.28764e-13
4.21276e-13
-5.80745e-13
-1.37716e-13
-4.39523e-12
-4.51051e-12
4.63585e-12
4.32978e-12
0
8.06235e-13
2.74578e-13
-1.06664e-12
-1.03418e-13
9.11408e-14
3.83968e-13
-1.01868e-13
-3.98657e-13
0
1.04482e-12
7.27165e-12
1.19551e-12
-8.40827e-15
1.07771e-12
-1.59528e-12
5.94631e-13
3.84841e-13
-1.51294e-13
0
-2.52834e-12
9.54471e-12
1.36207e-11
-1.08476e-12
1.28171e-11
1.39796e-11
1.55555e-12
1.11356e-12
1.45026e-11
-1.04161e-12
1.62906e-12
-4.22266e-12
-1.13449e-11
8.17702e-12
-1.03746e-12
-1.92348e-12
-5.20253e-13
-2.63493e-11
3.68341e-12
-2.51745e-12
2.95935e-13
9.66884e-13
-4.19623e-12
3.81616e-12
-1.18479e-12
0
3.71087e-13
1.10681e-11
-2.52081e-12
1.186e-12
6.69432e-12
5.9226e-12
3.91602e-12
3.71216e-13
0
1.49303e-13
-1.65611e-13
-6.95302e-12
5.17557e-12
3.23154e-12
-8.07956e-12
6.92139e-12
3.70131e-13
-1.79625e-14
4.62999e-12
-3.73055e-12
2.85742e-12
6.81069e-12
-3.06408e-13
1.13338e-14
-5.78635e-14
3.46561e-12
-1.0544e-13
-3.25956e-12
0
2.97755e-12
3.92861e-12
9.23733e-13
-3.71776e-13
-7.90298e-13
1.96607e-14
8.3509e-12
2.03878e-13
-7.94471e-12
1.48878e-13
0
1.25791e-12
-1.60789e-13
-2.3707e-12
1.18661e-12
5.69733e-13
-1.8821e-13
3.07435e-13
-5.55733e-13
1.19089e-12
-2.5253e-12
1.34591e-11
-1.21039e-11
1.19327e-12
3.16111e-13
-2.55053e-13
-3.45711e-12
6.93775e-12
-6.85172e-12
0
-7.1176e-12
-1.4431e-11
7.86946e-12
5.36268e-13
-9.18068e-13
4.21641e-13
6.91277e-12
4.6447e-12
1.64628e-12
4.74671e-12
-6.07803e-12
-4.81836e-12
-1.18223e-11
1.2297e-11
-9.90137e-12
2.92256e-13
-7.55329e-12
-3.70328e-12
-1.42502e-13
1.63129e-12
1.63079e-12
-2.46041e-12
4.09072e-13
-7.40489e-13
2.31048e-12
8.17406e-12
-5.18586e-13
-1.31255e-11
8.68006e-12
-2.81797e-12
1.48309e-13
-7.54586e-12
1.09054e-11
6.13523e-12
7.38479e-13
5.59137e-13
-5.27111e-13
-3.79299e-12
-7.73809e-12
-1.9289e-12
-2.97167e-13
-1.14421e-11
1.22705e-11
-1.93555e-11
5.61616e-14
-4.81934e-12
-1.09114e-12
1.73004e-11
6.34935e-12
-1.04052e-12
-8.33682e-12
-1.5975e-11
7.13135e-12
-9.58772e-14
-8.82364e-12
9.2591e-12
1.20305e-13
6.93382e-14
-5.25712e-13
8.93493e-13
2.97743e-13
2.14849e-13
2.27739e-13
4.13734e-12
-2.09073e-13
-1.96376e-13
7.75416e-14
-3.96199e-12
-5.96924e-13
-7.44531e-13
7.4233e-13
7.44664e-13
-1.90983e-13
-1.63697e-13
-3.47503e-14
4.63562e-12
3.52803e-12
-4.58429e-13
-3.63917e-12
-3.86011e-12
3.8573e-12
-2.23417e-14
-7.64048e-12
-5.89375e-12
3.91378e-12
5.34292e-13
-2.5104e-14
1.00168e-11
-3.46928e-12
-7.86413e-12
1.4814e-13
3.80333e-12
8.85777e-13
-1.84616e-12
8.82026e-13
-5.88236e-13
2.93845e-13
9.40489e-12
-9.87503e-12
1.1858e-12
-1.47983e-13
3.76157e-12
-2.61947e-12
3.28168e-14
1.0839e-12
-8.87228e-13
0
7.03347e-12
-3.97555e-12
-5.9202e-13
3.55081e-12
-1.77075e-12
-3.48657e-12
-7.21379e-13
-1.66858e-12
4.92739e-12
-1.02143e-12
2.53112e-12
-1.4757e-13
-7.39871e-13
3.55099e-12
-1.69706e-12
-2.15953e-12
-4.88124e-14
3.92827e-12
-6.84094e-12
3.44851e-12
-2.04429e-12
-5.20217e-12
-5.91925e-13
0
-5.42181e-12
1.88679e-13
-7.97528e-12
-3.70747e-14
4.50433e-12
2.44419e-12
-2.98662e-12
-1.54919e-12
5.47701e-12
3.40774e-12
-5.90892e-13
-4.81106e-12
1.4896e-13
-9.23616e-13
6.81322e-13
2.57971e-13
-7.76475e-12
-2.43762e-12
-3.70472e-12
-1.48373e-13
-1.33287e-12
-7.11377e-12
3.31876e-12
-5.86008e-13
4.67091e-13
4.90811e-12
-5.61282e-13
-4.16749e-12
0
4.45377e-13
4.08894e-13
-3.47997e-13
4.12011e-12
6.55997e-14
-4.65699e-12
-2.83018e-13
3.46064e-13
6.53503e-14
0
4.44611e-13
1.6943e-13
5.7683e-13
4.07226e-13
2.84483e-12
-6.30175e-15
-6.69517e-12
2.85698e-13
3.08262e-12
-2.96402e-13
7.99841e-12
3.95529e-12
-4.39181e-12
-6.31408e-13
-2.5991e-13
-1.2586e-12
1.80509e-13
1.14573e-12
-3.51537e-14
1.48118e-13
3.99602e-12
-3.40282e-13
-7.9591e-13
4.16345e-12
2.68792e-13
-2.26077e-13
4.30361e-12
4.80937e-12
-2.44772e-12
-2.3682e-12
5.76889e-12
3.9474e-13
-5.49689e-12
-3.55078e-12
-2.64271e-13
3.15972e-12
4.16212e-12
-2.31533e-14
-4.11935e-12
-1.4792e-13
0
5.49282e-12
1.94419e-13
-5.84362e-12
8.50351e-14
-3.07984e-13
4.54814e-12
-4.90794e-13
-7.23725e-12
-2.07046e-12
-4.58506e-12
-2.62881e-13
4.48226e-12
4.33016e-13
2.08464e-13
-5.89248e-13
-1.16568e-12
-1.0689e-13
8.36491e-13
0
-4.28991e-12
-5.00974e-12
3.04181e-12
-1.39545e-13
-3.59505e-12
6.42479e-13
-3.82247e-12
4.33487e-14
3.51536e-12
-2.95839e-13
-5.92027e-13
-5.15473e-13
3.34422e-12
-1.89361e-13
-7.08347e-12
-8.30815e-14
4.14553e-12
-4.06855e-15
-3.37302e-12
-3.25611e-12
0
-4.09514e-14
1.755e-13
-9.49666e-14
-1.15865e-13
4.28461e-12
-4.25129e-14
-4.32672e-12
1.30846e-13
-1.4812e-13
-1.03737e-12
3.53464e-12
4.80039e-12
-3.14531e-14
-2.16714e-13
1.55694e-14
3.6829e-13
-9.63062e-14
4.62847e-14
1.482e-13
2.96112e-13
-4.7406e-14
-4.37549e-12
3.43468e-12
4.24551e-12
-3.07765e-12
-2.60838e-13
3.77949e-12
-2.39889e-14
-3.84934e-12
-2.96014e-13
-6.03559e-12
-5.54932e-12
6.00512e-13
-5.45583e-13
8.86844e-14
8.50774e-13
6.18234e-13
2.7514e-12
2.96007e-12
-5.91781e-13
-3.81195e-13
-1.90893e-14
7.07258e-15
-1.0709e-13
-1.62056e-13
-3.16789e-14
6.14815e-14
3.90582e-12
3.55061e-12
3.4018e-12
6.86749e-13
-3.47494e-12
-1.08248e-12
1.6217e-13
4.61557e-13
-4.13004e-13
1.56998e-13
-7.43766e-14
-1.47892e-13
2.95779e-13
8.33771e-14
-1.64585e-13
1.16444e-13
-3.29251e-12
-1.58537e-13
3.32982e-12
-1.804e-14
-3.27728e-12
-3.1053e-12
3.40143e-12
-3.01659e-12
-2.85487e-12
3.99463e-12
-3.57776e-12
-2.0234e-13
2.91435e-12
3.4491e-14
3.22159e-13
-1.47868e-13
-3.54965e-12
-4.17154e-12
-4.88231e-13
1.01257e-12
6.06522e-13
3.50905e-12
3.20486e-12
-7.96124e-12
-3.05826e-12
3.84498e-12
0
-6.11426e-13
1.23754e-14
7.44137e-13
4.43773e-14
-2.2761e-13
2.61846e-13
-3.12747e-14
-1.34476e-13
0
0
-5.44149e-14
-4.67883e-13
-3.58201e-12
4.09663e-13
4.08355e-12
-6.53798e-14
-3.40083e-13
1.13803e-13
0
1.92459e-12
-5.01917e-12
-3.61728e-12
4.7645e-12
4.5255e-12
2.91431e-12
-4.76622e-12
-3.67508e-12
-6.4293e-14
1.4804e-13
5.91907e-13
4.00298e-12
1.53243e-13
-3.56419e-12
-3.61655e-12
3.19227e-13
8.82422e-12
-6.82929e-13
-5.10596e-12
0
0
2.71149e-13
1.67085e-14
3.10854e-14
-2.3153e-13
-2.79468e-13
5.10439e-13
6.28755e-14
-5.1404e-13
0
-3.55007e-12
-4.12173e-12
-1.02191e-12
-4.26505e-13
5.14153e-13
4.96406e-13
-4.58745e-12
-1.07804e-13
4.47067e-12
0
1.47897e-13
4.58736e-12
4.15234e-13
-3.85409e-12
-1.64523e-13
-1.50249e-12
-1.67589e-13
4.46065e-13
-2.26875e-14
-1.47881e-13
-4.43663e-13
5.29256e-14
2.32221e-13
5.08608e-13
4.25086e-12
-5.26486e-13
-4.29313e-12
-5.06936e-12
-4.53304e-12
2.95733e-13
3.10569e-12
-1.86972e-13
-2.39111e-13
3.72291e-12
4.08264e-13
9.93738e-14
-5.87538e-13
1.09115e-13
-5.06037e-14
0
-3.84532e-12
-8.75781e-12
-2.57596e-13
4.81399e-12
4.05087e-13
-8.83538e-14
-2.78882e-13
-4.81198e-12
-9.40249e-15
4.73189e-12
-1.47913e-13
-5.13846e-12
-4.50425e-12
4.88329e-12
4.16953e-12
2.1828e-13
2.42957e-13
-6.36655e-13
2.57364e-13
5.91577e-13
-3.84653e-12
-3.77326e-12
1.1924e-13
-1.39011e-13
-1.14146e-13
-3.18064e-14
-4.67904e-12
3.24023e-14
4.6974e-12
0
1.47969e-13
-1.33588e-13
2.87526e-13
5.16652e-14
-6.69721e-13
-1.98209e-13
5.67355e-13
8.18525e-14
-2.8405e-13
-2.95913e-13
-3.99412e-12
-8.88909e-13
3.69264e-12
1.44463e-13
2.64437e-18
-2.40494e-13
3.55826e-13
1.54856e-13
-9.50576e-14
0
-2.95833e-13
4.35166e-14
-1.83114e-12
-2.6882e-13
2.24866e-12
-1.19647e-13
1.58028e-13
3.46454e-14
-3.26041e-14
1.47904e-13
3.40165e-12
6.93144e-14
-3.39326e-12
4.54625e-12
5.63914e-13
-2.39099e-13
-1.73556e-12
-4.29418e-12
5.39044e-12
4.43657e-12
0
-3.67044e-12
6.59539e-14
3.66959e-12
5.30003e-13
8.92895e-14
-4.99136e-12
3.38897e-12
4.01318e-12