/*--------------------------------*- C++ -*----------------------------------*\
  =========                 |
  \\      /  F ield         | OpenFOAM: The Open Source CFD Toolbox
   \\    /   O peration     | Website:  https://openfoam.org
    \\  /    A nd           | Version:  10
     \\/     M anipulation  |
\*---------------------------------------------------------------------------*/
FoamFile
{
    format      ascii;
    class       volScalarField;
    location    "0.2";
    object      gradTz;
}
// * * * * * * * * * * * * * * * * * * * * * * * * * * * * * * * * * * * * * //

dimensions      [0 -1 0 1 0 0 0];

internalField   nonuniform List<scalar> 
46825
(
1.49086e-13
0
-1.48932e-13
5.94865e-12
4.45697e-13
-4.15985e-12
1.48719e-12
9.23413e-12
2.98155e-13
5.21849e-12
5.96213e-13
-1.4893e-13
1.48581e-13
-6.06895e-12
3.10056e-12
1.47648e-13
-4.44079e-13
6.38917e-12
-2.97867e-13
-7.45312e-13
-5.21166e-12
0
-1.09309e-11
-6.73141e-12
-2.90893e-13
-5.81788e-13
-1.46336e-13
-3.54522e-12
-7.42861e-13
-5.95649e-13
-4.46072e-13
0
-2.48763e-12
7.63031e-12
1.56749e-12
7.12496e-13
-4.31903e-13
-8.63349e-12
0
-5.94772e-13
4.90217e-12
2.95287e-13
-3.9273e-12
-2.8502e-13
1.68825e-12
-1.54756e-12
-1.42508e-13
-8.72722e-12
1.47641e-12
-1.18838e-12
-4.90274e-12
1.4767e-13
-9.02047e-12
0
1.82919e-12
-7.4574e-12
4.70373e-12
0
1.47664e-13
2.97125e-13
-1.04116e-12
0
-5.71089e-12
-6.19447e-12
2.85107e-12
-1.85318e-12
2.73701e-12
1.90358e-12
4.44217e-13
-8.92385e-13
-4.46889e-13
0
-2.95663e-13
-7.32189e-12
-3.34676e-12
-2.91023e-13
-2.92875e-13
6.50463e-12
-7.72968e-12
2.97917e-13
-4.77121e-12
-1.48984e-13
4.75673e-12
-1.48082e-13
-1.47687e-12
5.02138e-12
4.44253e-13
-6.24335e-12
0
5.96405e-13
0
2.98193e-13
1.48959e-13
7.43695e-13
-1.04007e-12
1.48584e-13
5.94981e-13
1.19174e-12
0
-5.21941e-12
6.86307e-12
-1.49346e-13
5.8241e-12
6.86485e-12
-2.98375e-13
-4.32641e-12
7.90951e-12
4.03216e-12
-1.49359e-13
1.49216e-13
-6.12195e-12
1.12218e-13
1.43363e-13
4.51437e-13
8.64756e-13
9.6498e-13
1.44593e-14
7.9486e-12
-3.74075e-13
-7.46658e-13
-5.97153e-13
6.34148e-14
1.48986e-12
-7.71075e-12
2.95805e-13
-9.16613e-12
2.95934e-13
4.45615e-12
-4.59839e-13
-2.98595e-13
6.11694e-12
1.97089e-12
0
2.07873e-11
2.90624e-13
1.16147e-12
-1.456e-12
-1.47306e-12
-1.4024e-12
6.26626e-12
5.36969e-12
3.62394e-12
1.27184e-11
-8.71846e-13
2.87475e-13
-2.87087e-13
1.44174e-12
-1.29016e-11
-4.32905e-13
-8.94936e-12
-4.9227e-12
3.77525e-12
-2.95685e-12
9.58243e-12
-3.15799e-12
-7.16686e-12
2.88005e-13
0
7.48602e-13
-1.49166e-13
-8.95413e-13
-1.05433e-11
-5.03243e-12
-5.82654e-12
5.76776e-13
-2.01606e-12
-2.60284e-12
8.81042e-12
1.78108e-12
-4.47681e-13
-4.4803e-13
6.32819e-13
-3.86401e-12
-5.6017e-12
8.79877e-13
-1.05506e-11
-1.05728e-11
6.80684e-12
4.50362e-12
4.33079e-12
1.4936e-13
-1.12246e-13
1.88716e-12
2.36673e-12
5.47851e-13
-2.26972e-12
-2.62507e-12
-4.5098e-13
1.60892e-12
8.96163e-13
0
-4.48054e-13
1.49332e-13
8.9537e-13
1.49176e-13
5.51962e-12
-1.49238e-13
4.48038e-13
0
1.49229e-13
4.4749e-13
-5.42519e-12
8.15957e-13
-7.8731e-14
-1.83109e-13
4.12541e-12
4.42069e-12
-4.87477e-12
1.08948e-12
-4.62492e-12
-9.76193e-12
0
2.98791e-13
5.68239e-12
1.79852e-12
-2.99921e-12
-1.25741e-11
-1.28432e-11
0
-2.82036e-13
8.67655e-14
-2.98736e-13
-5.75162e-12
-7.26517e-12
1.8265e-12
6.09859e-12
-5.46348e-12
3.02548e-13
-3.00317e-13
-5.77575e-12
3.87164e-12
-8.67112e-12
5.4487e-12
5.07921e-07
4.8104e-07
4.89248e-07
4.50053e-07
2.7989e-09
0
-3.4333e-14
-9.77858e-14
-2.997e-13
-1.61317e-11
4.80847e-07
-1.48138e-07
-1.53139e-07
-1.11999e-07
1.43689e-10
-2.1177e-12
-4.96297e-12
-4.7632e-12
9.89556e-12
6.09675e-13
4.88872e-07
-1.5302e-07
-1.58522e-07
-1.1477e-07
2.16707e-11
9.69099e-12
4.5613e-12
-8.20568e-14
-2.3947e-12
-4.24976e-12
4.59681e-07
-1.10771e-07
-1.14691e-07
-7.73613e-08
1.15842e-09
-3.92488e-12
1.08818e-13
2.40926e-13
1.49325e-12
-3.02761e-13
-4.63547e-10
1.46028e-10
1.21692e-11
1.17375e-09
3.81292e-11
6.91527e-12
-1.60673e-12
4.58795e-12
0
1.29153e-11
1.80747e-12
-1.48224e-11
-6.35924e-12
5.13261e-12
7.81768e-12
2.99101e-13
-4.11916e-13
-4.47513e-13
-5.75291e-12
-1.16188e-13
-6.48815e-14
7.48809e-13
1.02444e-13
-3.9092e-13
4.16325e-12
1.80492e-13
5.6691e-12
-7.1428e-12
-9.55008e-14
-1.20567e-13
6.00641e-12
6.93175e-12
3.54833e-13
-1.6586e-12
1.20997e-13
5.62512e-12
1.48854e-13
6.0684e-12
2.97015e-13
-1.94244e-13
-1.82687e-11
-4.11339e-11
-3.16951e-11
-1.38814e-11
1.44249e-11
9.79542e-12
-2.13993e-13
-2.65483e-13
-2.28086e-12
1.49102e-10
-3.25672e-07
-3.52104e-07
-3.2886e-07
-3.52091e-07
-4.12163e-07
1.1158e-10
-5.13108e-12
-6.22722e-12
-2.15063e-11
-4.78072e-07
-225.324
-294.043
-294.679
-293.144
-0.00146048
6.89665e-10
-1.13442e-11
-7.43825e-15
-3.60991e-11
-3.48273e-07
-294.038
-407.586
-409.098
-405.274
-0.168624
-4.17802e-09
8.17872e-12
-4.98487e-12
-3.85007e-11
-3.38221e-07
-294.655
-409.082
-410.685
-406.688
-0.169419
-3.60384e-09
7.12927e-12
3.81889e-13
-2.77508e-11
-3.53117e-07
-292.125
-405.127
-406.677
-402.708
-0.168253
-5.34485e-09
-4.11933e-13
-2.45498e-13
-7.35613e-12
-4.11105e-07
-0.0132959
-0.168081
-0.16938
-0.168228
-0.0163608
-1.26376e-09
-5.27505e-12
-4.32726e-12
2.96711e-13
1.01684e-10
1.45301e-09
-3.95993e-09
-3.62579e-09
-5.15608e-09
-1.24991e-09
1.24919e-11
-6.81119e-12
-1.33927e-12
5.47787e-13
-4.8959e-12
2.09103e-13
4.42431e-12
-5.36042e-12
6.68027e-13
3.4631e-12
-1.84159e-13
4.01851e-12
0
7.23806e-13
4.85095e-12
3.47491e-14
-1.20032e-13
-4.57541e-12
-4.37369e-12
1.68051e-13
-1.13008e-12
2.97342e-13
1.52929e-11
2.96347e-13
1.06587e-11
1.29319e-10
2.28173e-10
2.18178e-10
2.31369e-10
-1.04717e-12
-1.03711e-11
6.02844e-14
1.1964e-13
2.0888e-12
1.58599e-09
-0.000476256
0.00563293
0.00570129
0.00555066
-8.01685e-05
3.97101e-10
6.06096e-12
-4.1007e-12
-1.4487e-12
0.00278307
2.48816e-07
-5.7634e-12
2.68368e-13
2.36821e-10
0.0056358
1.03286e-06
1.19643e-11
4.85671e-12
2.10027e-10
0.00568202
1.05143e-06
1.1123e-12
-4.31799e-12
2.39999e-10
0.00554995
9.80671e-07
-4.82295e-12
-2.38208e-14
-1.38274e-13
-7.48944e-05
-4.17327e-08
-3.56698e-12
-8.86885e-12
-2.96158e-13
4.46779e-10
4.19884e-07
1.04042e-06
1.05763e-06
9.79058e-07
-4.15515e-08
-1.25145e-11
2.54691e-13
4.4586e-13
9.71174e-12
-6.27275e-12
-3.83925e-13
6.14752e-13
8.42027e-13
1.77015e-13
-1.05363e-11
-4.58353e-12
4.60816e-12
-4.60861e-12
-4.93581e-12
1.83619e-12
-6.67317e-12
-6.47812e-12
-2.62803e-13
-1.2103e-11
-2.64599e-13
-1.0125e-11
0
7.865e-12
-2.97272e-13
-1.04717e-11
-7.29839e-12
5.8634e-11
5.10908e-11
6.32265e-11
6.46124e-13
1.10148e-11
-6.03794e-14
-3.9455e-12
-1.23809e-13
-1.07386e-09
0.000133011
0.000180312
0.000180807
0.000179862
-4.74425e-06
6.62719e-11
4.08415e-12
5.9041e-12
3.21016e-12
8.19617e-05
1.07623e-07
5.20614e-12
-1.11342e-14
5.16257e-11
0.000180398
9.8033e-08
-9.91519e-14
5.44581e-12
5.48787e-11
0.000180805
9.06845e-08
-6.99317e-12
-1.21977e-12
5.71029e-11
0.000179836
7.54087e-08
5.65696e-13
-4.48867e-13
1.5918e-11
-2.29629e-06
-2.61394e-09
2.19842e-12
4.57457e-12
-2.97733e-13
5.40744e-11
2.75982e-08
8.59872e-08
9.07071e-08
7.5399e-08
-3.20051e-09
-9.61311e-12
5.98765e-12
8.92018e-13
-4.4387e-13
1.15666e-11
-6.96754e-14
-1.08229e-11
-8.07421e-13
-2.04457e-13
7.05863e-13
7.77442e-14
-4.16351e-12
1.48749e-13
1.22531e-11
-5.98432e-12
-2.87642e-13
4.02922e-13
-1.8769e-13
-5.47571e-13
-5.96693e-12
5.41554e-12
-1.48796e-13
-5.88706e-12
9.52898e-12
-1.10722e-13
-3.21947e-12
1.34581e-11
1.22984e-11
1.54857e-11
1.75535e-12
-9.54729e-12
3.70087e-13
-6.41024e-12
-7.36996e-14
-1.73606e-09
3.24753e-05
6.04764e-05
4.04214e-05
6.0288e-05
-1.67998e-06
2.22255e-11
4.20766e-13
1.06556e-12
-1.58004e-11
3.20524e-05
5.8138e-09
6.10639e-12
-4.98751e-12
1.0531e-11
6.04897e-05
1.57883e-08
-6.76762e-12
1.09572e-13
9.07632e-12
6.06051e-05
1.14476e-08
-5.99454e-12
5.37325e-12
1.6653e-11
6.02671e-05
-4.23415e-09
4.24173e-12
1.78056e-13
-3.0407e-12
-7.75375e-07
8.23841e-10
3.94026e-12
8.61452e-12
5.96655e-13
-1.25281e-12
3.90068e-09
9.81912e-09
1.27121e-08
1.02478e-08
-5.65932e-10
9.93742e-12
-4.1295e-13
1.48761e-13
-9.7232e-12
1.96968e-12
9.38088e-14
-8.41187e-12
-4.20709e-13
-5.50727e-13
5.85659e-12
4.91182e-12
-5.05882e-12
1.1013e-11
5.47256e-12
-7.60425e-12
6.0803e-12
5.52822e-12
2.7432e-13
1.31952e-11
8.04519e-13
4.48378e-12
-5.95465e-13
-6.88936e-12
-1.51976e-11
1.63446e-12
-2.92866e-13
4.09852e-12
1.17208e-12
2.92383e-12
-1.40564e-13
-1.49282e-12
-7.95514e-13
-5.08242e-12
3.28165e-14
4.43019e-10
1.60073e-05
6.05299e-05
2.0281e-05
4.02554e-05
-1.71509e-06
5.60663e-12
4.11645e-13
-8.87186e-13
2.04954e-12
3.79489e-07
-1.22684e-09
-3.38474e-13
-7.78889e-14
7.31797e-12
6.05193e-05
-4.07091e-09
-6.68811e-14
3.90368e-12
9.08217e-12
2.02827e-05
-4.51084e-09
-5.39072e-12
5.81202e-13
2.92341e-12
6.03162e-05
-9.30526e-08
-7.92145e-12
1.09627e-13
-1.2542e-11
6.88093e-10
8.25259e-09
-1.04658e-12
5.16109e-14
-5.97294e-13
6.889e-12
-2.78246e-09
1.56641e-09
-3.26034e-09
-1.30486e-09
-1.89695e-10
0
1.79706e-13
2.97672e-13
1.74411e-13
-1.5356e-12
-1.98939e-13
6.71098e-12
4.30179e-13
-4.28579e-13
-4.44804e-12
4.69704e-12
-1.48862e-13
-2.97761e-13
-7.48157e-12
3.67112e-14
8.0257e-14
4.51856e-12
-1.18713e-13
5.30461e-13
6.06139e-12
-5.57508e-12
1.48922e-13
-4.38883e-13
5.66327e-12
-1.73851e-12
2.63578e-12
-2.57633e-11
-2.02185e-11
-2.71925e-11
-5.54787e-13
2.09035e-12
2.48662e-13
6.43371e-12
-1.00669e-11
2.39911e-10
-3.29164e-05
-1.97404e-05
-3.99626e-05
3.57456e-07
-1.77463e-06
-2.99064e-11
-8.54514e-13
4.00483e-12
1.46392e-11
-3.3557e-05
-2.60272e-08
-7.56683e-14
5.34829e-12
-2.34176e-11
-1.97394e-05
-8.40325e-08
-5.51693e-13
3.6746e-14
-3.33996e-11
-1.97968e-05
-8.60151e-08
8.20576e-13
-6.25036e-12
-2.5435e-11
-1.96773e-05
-4.51404e-09
8.32338e-14
1.40123e-13
3.78045e-13
7.12489e-07
-2.09128e-08
-6.46173e-14
-5.5791e-14
-9.55738e-12
-3.91355e-11
-2.45282e-08
-8.61371e-08
-8.58242e-08
-7.3348e-08
2.06732e-09
-8.82749e-16
-6.53265e-13
-1.48893e-13
4.92403e-12
3.33902e-12
-6.92847e-12
6.90734e-12
1.54222e-12
8.19424e-13
-7.208e-12
-4.09224e-13
1.48915e-13
-1.3403e-12
-7.29014e-12
-7.36529e-14
-5.71094e-12
-5.24351e-12
3.11863e-14
4.01658e-13
-5.38104e-13
-2.82682e-13
5.95841e-13
6.10566e-12
3.27886e-12
-1.24048e-12
4.22266e-11
6.66226e-11
8.07822e-11
4.10295e-11
-2.05977e-12
-1.4929e-12
1.07897e-12
5.23725e-12
9.40738e-12
1.51782e-10
-0.00185578
-0.004276
-0.00434273
-0.0042494
3.6939e-05
-7.22697e-11
3.82006e-13
-4.09372e-12
3.16627e-11
-0.00188758
-2.15305e-07
5.04497e-12
-8.78826e-14
6.57351e-11
-0.00427594
-2.86787e-07
-1.89364e-13
-4.61763e-12
8.81164e-11
-0.00434263
-2.95815e-07
4.99399e-12
-5.13774e-12
3.69224e-11
-0.00420899
-2.81455e-07
7.65709e-12
3.85797e-13
-4.103e-13
3.94564e-05
2.03156e-08
2.34098e-13
-2.8602e-14
9.85571e-12
-7.80214e-11
-2.14861e-07
-2.885e-07
-2.93273e-07
-2.89516e-07
2.11947e-08
-3.01161e-13
9.20532e-13
0
2.60776e-13
-5.14983e-12
5.56039e-13
3.39873e-13
-4.31578e-12
-1.73515e-13
-5.66486e-13
-4.91104e-12
7.44784e-13
-2.97885e-13
6.43308e-13
-2.85292e-14
-4.42168e-13
2.77724e-12
5.46786e-12
1.37654e-13
5.16643e-12
-5.07239e-12
-1.63864e-12
-1.08629e-12
-1.43082e-11
-1.66579e-13
8.80557e-12
-1.00035e-11
8.54007e-12
-9.10588e-12
-8.61129e-14
1.49298e-12
-5.34123e-13
-2.41116e-13
-1.30117e-11
7.03363e-11
1.36911e-06
8.6091e-07
8.70156e-07
8.81315e-07
1.16853e-06
2.21034e-11
4.69381e-13
-4.86484e-12
-1.08589e-11
1.33547e-06
-1.10159e-09
-5.31789e-12
5.6995e-12
0
8.61294e-07
-1.34369e-09
1.84973e-13
4.00672e-13
2.94467e-13
8.77454e-07
-1.29182e-09
-7.08667e-13
5.75665e-12
-2.9371e-13
8.95691e-07
-1.47927e-09
-5.36379e-12
6.89046e-12
-1.169e-13
1.19317e-06
1.05543e-09
-4.75081e-12
2.13792e-13
-1.19412e-12
1.55226e-11
-1.10502e-09
-1.36212e-09
-1.31075e-09
-1.48744e-09
1.04897e-09
9.63567e-12
1.65746e-13
2.97907e-13
9.90424e-13
2.0321e-13
6.56738e-12
7.94407e-13
-1.67825e-12
-1.07001e-12
7.42235e-12
-6.50967e-12
1.48964e-13
-5.06408e-12
-4.06284e-12
1.911e-13
-8.05891e-14
-4.86365e-12
4.2539e-12
-7.23164e-12
3.35115e-13
-1.351e-13
0
-6.25487e-12
1.13292e-11
1.44116e-12
-1.46374e-11
1.02536e-11
-9.38229e-12
9.65476e-12
2.65581e-13
-1.34388e-11
-6.8034e-14
-3.96239e-14
1.29988e-11
-1.22397e-12
-5.79988e-13
1.17621e-12
-8.24601e-12
1.82036e-11
-2.83076e-13
1.50669e-12
-6.81015e-14
-5.86438e-13
1.08312e-11
-2.26222e-11
1.55244e-12
-4.69028e-12
1.01474e-13
0
-1.70542e-11
-4.11388e-13
-5.10362e-13
-1.38156e-13
5.86377e-13
-2.17929e-11
-9.76029e-14
1.45675e-13
4.57996e-12
1.05323e-11
2.34885e-12
1.4158e-12
5.52125e-12
-1.45303e-13
5.4518e-14
7.50758e-13
-8.76707e-12
-7.24253e-12
4.73273e-12
5.97279e-13
-4.97211e-12
9.95121e-13
1.41393e-11
1.4071e-11
1.18782e-11
9.37474e-12
-9.03864e-12
-1.43451e-12
4.76625e-12
8.31645e-14
-5.04973e-12
2.55742e-13
4.90173e-12
9.03007e-12
6.09288e-14
1.777e-12
4.14738e-13
-1.04268e-12
-5.95738e-13
-2.23932e-13
-1.90622e-14
-4.40141e-13
-1.21147e-11
-5.25911e-12
7.85408e-13
-6.35531e-13
1.17261e-11
1.19154e-12
7.91621e-13
1.07341e-11
-2.45384e-13
-5.56109e-12
2.9284e-13
8.79252e-13
-2.92454e-13
-1.5315e-13
1.16487e-11
6.6592e-12
2.26718e-13
1.65731e-13
-3.79586e-11
6.55124e-13
-2.40879e-12
5.90816e-13
-5.88804e-13
1.41473e-12
1.65027e-11
1.07415e-13
-4.41149e-14
-1.17076e-12
5.02279e-11
-1.03812e-11
9.77133e-12
-1.20833e-11
2.92826e-13
-1.56338e-11
-2.89047e-13
2.2681e-13
-5.86474e-14
-2.93069e-13
-1.77244e-12
1.21887e-11
2.59702e-14
1.97905e-13
-1.05281e-11
-1.1776e-12
1.30149e-12
1.03114e-11
-7.60534e-12
-3.16143e-13
-2.03111e-12
1.02941e-11
4.83826e-12
5.68025e-12
2.38939e-12
-3.47057e-12
-1.33142e-12
3.0163e-13
-2.0903e-13
-2.03876e-11
-9.00105e-12
-3.01411e-13
-2.34658e-13
0
-9.08936e-13
2.46202e-13
3.83381e-13
-7.51416e-13
-7.14369e-13
-5.54966e-12
5.88622e-12
9.24379e-12
5.95761e-13
-4.02105e-12
1.08032e-11
3.86963e-13
6.43941e-13
1.11986e-11
-4.54626e-12
4.4127e-12
4.69608e-13
-1.10248e-13
6.10621e-12
2.71297e-13
-1.07339e-11
-2.9957e-13
1.11235e-11
-9.37259e-12
5.86273e-13
-2.92488e-13
7.9387e-13
1.19482e-12
-2.19025e-13
-7.25443e-12
-1.24281e-12
6.12329e-13
-4.45416e-13
-1.14661e-13
0
-2.94459e-12
1.11398e-13
-5.44987e-12
-2.5442e-13
3.3033e-12
5.85425e-13
2.15574e-12
1.85759e-11
-1.95997e-13
7.50688e-14
2.92872e-13
-1.33571e-12
8.58627e-14
-4.07789e-14
6.89739e-12
-5.86243e-13
5.9099e-13
-1.23402e-11
-1.0583e-13
3.14381e-13
-2.92489e-13
2.76791e-11
-1.45867e-12
-5.55427e-12
2.77327e-13
-7.19033e-14
2.94472e-13
-1.02429e-11
1.18305e-11
-9.73931e-12
-2.38955e-12
-1.30939e-12
-3.00199e-13
2.90861e-13
4.80577e-13
9.07847e-12
8.84952e-12
0
-3.57601e-12
-5.65928e-12
-8.80932e-14
5.26299e-12
-6.36875e-12
-5.02341e-12
2.80964e-12
1.66782e-13
-1.12222e-12
9.2185e-14
0
2.97866e-13
-2.74444e-13
-6.31573e-14
4.28197e-13
4.11412e-12
-9.58576e-14
-2.61564e-12
-5.14585e-12
-6.30007e-12
4.61707e-12
4.88593e-12
5.96263e-13
5.31844e-13
-5.85387e-13
9.371e-12
-5.8617e-13
8.77348e-13
2.46423e-13
-1.04532e-11
-1.12902e-11
-5.08628e-12
1.19273e-11
1.83689e-12
-3.96062e-13
-2.01707e-11
1.6547e-11
-5.88888e-13
2.17135e-11
-9.59498e-12
1.34052e-13
-1.9194e-13
-1.14148e-11
2.38139e-12
3.94602e-14
-4.34249e-12
5.08567e-12
-1.22992e-11
-2.55222e-11
-2.51525e-13
3.10134e-13
2.2347e-13
2.93075e-13
-5.90961e-13
4.7823e-13
-3.91453e-13
5.34756e-12
5.84888e-13
-2.88555e-11
-2.89918e-13
-4.74714e-12
1.89514e-13
1.24419e-11
2.17064e-11
-1.35454e-11
-1.62485e-13
-1.0533e-12
8.66098e-12
-1.31677e-11
-1.28699e-11
1.27837e-13
-7.10171e-13
1.40066e-11
-8.73397e-12
0
-4.05405e-13
7.44655e-13
8.8567e-12
9.12924e-13
-1.56046e-15
-6.44784e-12
-1.43135e-13
6.33485e-12
-5.17156e-12
4.13383e-12
-5.95741e-13
3.87245e-12
6.52064e-13
5.80618e-13
-6.10017e-12
-6.44464e-12
2.82855e-13
-4.62984e-12
-2.69955e-13
2.81759e-13
-5.66009e-12
1.70751e-13
-1.19233e-12
1.60371e-13
9.07213e-12
1.46417e-12
1.26021e-11
2.92441e-13
-3.94635e-13
9.25585e-12
8.19962e-15
7.14681e-12
-1.13469e-11
1.53029e-11
-1.886e-11
5.54019e-13
0
5.88424e-13
3.5847e-12
8.25925e-12
-2.53475e-13
-2.91689e-12
1.19984e-11
2.75348e-11
-7.39456e-12
-1.19314e-13
9.53133e-14
1.05416e-11
4.52689e-13
-6.08699e-13
3.08283e-14
-7.14622e-12
8.79208e-13
2.89289e-11
8.81217e-13
-1.98551e-13
2.43343e-13
-5.84861e-13
-2.94186e-12
-7.51949e-13
-3.63656e-14
-4.35344e-13
-1.26965e-11
-2.2866e-12
2.81169e-11
-4.4767e-12
5.23965e-12
-5.97142e-13
1.42021e-11
1.32535e-11
-5.95215e-13
3.76185e-13
-5.68748e-12
1.32418e-11
0
-5.34355e-13
2.97895e-13
-3.30587e-13
-2.10743e-13
6.0019e-12
-3.11103e-14
-7.08833e-12
8.00861e-12
5.3488e-12
8.15123e-14
-7.44742e-13
-1.48961e-13
-1.32544e-13
-6.36045e-14
-1.19264e-12
-5.82936e-14
-1.18073e-13
2.2511e-12
8.3909e-15
-5.39561e-13
-5.21447e-12
-4.43435e-13
2.98052e-13
1.07807e-11
-8.50407e-12
-1.23422e-11
-1.26469e-11
1.17351e-12
-8.82634e-13
1.28346e-11
9.27512e-12
7.09997e-13
-5.8035e-13
2.43961e-12
-5.80618e-13
5.90844e-12
2.78075e-11
1.77036e-11
-3.0373e-12
-8.1062e-12
2.70217e-13
2.69739e-14
0
2.38073e-11
-1.76249e-12
-4.72778e-12
9.12563e-14
1.46926e-12
5.90829e-13
-1.00863e-11
2.69659e-13
-3.07888e-13
-6.76452e-12
5.91658e-13
-1.06266e-11
5.22812e-13
-5.01078e-12
-1.46697e-12
1.12126e-11
-8.20831e-12
-5.04592e-12
-3.29812e-13
5.88473e-13
-1.44542e-12
-1.51797e-11
-2.41529e-13
-4.64687e-12
-7.76061e-12
-1.83928e-12
3.77899e-14
-4.22603e-13
1.82258e-13
-8.34381e-12
-1.51928e-11
-6.01805e-13
4.4217e-13
-2.97959e-13
-1.73946e-11
-1.01518e-12
1.2762e-13
7.12678e-12
4.10818e-13
4.11821e-13
-2.50419e-13
-1.5382e-11
1.48985e-13
1.48966e-13
1.93659e-13
-3.99661e-13
6.409e-12
-1.57364e-13
5.36266e-13
1.58187e-13
2.6325e-14
1.12492e-13
2.98006e-13
7.73951e-15
5.96355e-13
-1.10755e-11
0
1.08749e-11
5.88349e-13
-1.23258e-11
-1.33347e-11
-1.13519e-11
-6.5959e-12
2.96958e-14
9.39239e-12
6.13733e-13
5.01971e-12
1.01942e-12
1.30278e-12
5.90557e-13
-1.78896e-11
3.9204e-12
-5.2546e-12
-2.8235e-13
-2.93414e-13
1.11621e-12
-8.77351e-14
-6.00567e-12
-9.86592e-13
0
-1.97184e-11
1.91e-11
2.57802e-14
-3.31851e-13
7.35384e-12
2.05094e-11
9.47826e-12
-5.27368e-12
-6.30513e-14
1.17385e-12
1.56009e-12
8.39999e-12
-3.85138e-12
-1.60501e-13
1.23689e-11
-5.60524e-15
-1.42991e-15
5.67837e-13
-5.64261e-12
-5.97488e-13
5.20307e-12
-6.02901e-13
8.23428e-13
-2.43417e-13
8.20046e-12
3.06411e-12
3.01422e-13
8.67657e-12
5.96003e-12
5.08943e-12
-2.43122e-14
6.59592e-12
1.6062e-13
-4.90304e-12
-8.24727e-12
-1.07303e-11
-1.09881e-13
7.00304e-12
5.95812e-13
-1.07778e-13
5.39025e-12
8.26491e-13
2.97805e-13
2.18015e-13
-4.76767e-13
-4.8806e-14
-2.9245e-13
1.48993e-13
-5.16289e-12
1.10324e-11
-1.12522e-11
1.40607e-11
0
0
2.25219e-11
1.41906e-11
-8.06535e-12
-4.33522e-12
7.33455e-12
-9.90142e-12
3.06805e-12
2.22373e-11
-5.88765e-13
1.17952e-12
-5.87928e-13
-1.82153e-11
2.60803e-11
-1.39395e-12
1.3452e-13
2.92828e-13
5.28092e-12
-5.79867e-15
1.14467e-11
2.25824e-13
-9.36987e-12
5.88753e-13
-8.93395e-12
4.0059e-13
3.0092e-13
-5.86148e-13
2.35902e-12
-3.39305e-13
-4.01164e-13
2.03474e-13
-2.9247e-13
6.46719e-12
-6.32474e-13
5.95496e-13
2.33349e-13
-1.23096e-11
1.60642e-11
1.4436e-11
9.57172e-14
-6.43408e-15
-8.96187e-13
2.25336e-13
-9.92093e-12
1.55415e-11
-1.31337e-14
-8.57537e-12
-1.23615e-13
-9.04166e-13
5.83859e-13
-2.97991e-13
8.51685e-12
4.93116e-12
-7.14174e-12
1.03268e-13
-3.77945e-12
-4.35118e-13
-7.40412e-12
1.52294e-12
0
0
-7.49105e-13
5.65149e-15
-6.81068e-12
4.6078e-12
-6.32258e-12
-1.11411e-11
-4.5026e-13
-5.08594e-13
5.21514e-12
-2.94619e-13
-1.13304e-11
1.22335e-11
-1.31825e-11
0
0
-1.0529e-11
-2.9424e-13
7.76715e-12
1.22243e-11
-2.82316e-13
1.123e-12
3.68293e-12
1.15029e-12
-1.9462e-11
-2.00908e-11
-2.2965e-11
4.62951e-12
2.05751e-11
-2.62932e-14
3.97765e-12
2.92839e-13
7.93669e-12
-5.4978e-13
5.4478e-12
-5.54776e-14
9.07639e-12
-1.22876e-12
1.10431e-11
-1.26627e-13
1.10393e-13
-9.67133e-12
0
-1.29522e-11
5.45838e-12
3.40605e-13
1.1698e-12
2.35537e-12
-1.43178e-13
4.30695e-12
-2.8067e-13
2.8474e-13
1.96913e-13
-2.87795e-11
-6.07503e-12
-3.06711e-12
2.98727e-13
1.0935e-12
9.38931e-12
-1.51327e-11
-5.85773e-13
-9.86103e-12
-1.37828e-12
1.50722e-12
-4.59883e-12
-6.10922e-12
-5.4682e-12
1.47725e-13
-6.27747e-12
-6.36077e-13
4.72502e-12
-1.5606e-13
5.22603e-12
6.46747e-13
-6.40739e-12
0
6.77363e-13
-5.53433e-12
-5.87763e-12
-4.6726e-12
-8.41923e-14
1.06213e-12
-4.83441e-12
-1.06817e-11
-6.55853e-12
5.98037e-13
-1.04371e-11
2.43553e-13
0
1.46432e-12
2.93116e-13
0
-8.82704e-13
-1.19502e-12
-2.94874e-13
-9.27866e-12
-4.4303e-13
-6.13853e-13
-1.9403e-11
1.88746e-11
-5.31836e-12
-2.94441e-12
1.86881e-12
-1.98224e-11
1.47264e-12
4.61191e-12
-2.92861e-13
7.05895e-13
1.81742e-12
-1.1414e-11
6.10041e-12
8.78473e-13
-6.1438e-12
-1.08256e-11
-3.38849e-13
4.5882e-12
2.13964e-11
-2.06829e-11
1.31388e-11
6.81686e-13
-1.85256e-13
-2.04731e-12
5.88888e-13
1.34062e-11
4.53954e-12
-4.71795e-12
-6.63566e-13
-9.05842e-13
1.42968e-11
5.44267e-13
1.9193e-13
1.85231e-11
9.54112e-12
1.01065e-13
-2.68291e-14
-7.36895e-14
1.02881e-11
-4.80213e-13
1.38667e-11
-1.20166e-13
-5.96225e-12
5.70229e-12
-4.47518e-12
1.36923e-11
9.60445e-15
-1.34857e-12
4.3819e-12
7.49074e-12
2.1652e-12
-1.93783e-12
5.96492e-13
8.83419e-13
7.4328e-13
6.04029e-12
-4.59535e-12
5.84615e-12
1.08199e-11
5.77876e-12
5.17628e-12
-5.51897e-12
9.26536e-13
1.07385e-11
1.04454e-11
1.4352e-11
-2.04983e-12
2.93091e-13
-1.05287e-11
-2.94245e-13
8.96354e-13
-1.02468e-11
-8.92782e-12
1.0943e-11
1.84059e-12
-1.33333e-12
0
0
4.70972e-11
-1.30048e-12
-6.50512e-13
5.32822e-12
-3.94698e-12
1.11279e-11
-3.04599e-11
3.46325e-13
3.66255e-13
-3.86793e-12
1.05409e-11
2.24254e-11
-3.43837e-13
2.05407e-13
7.93377e-15
-1.75841e-12
-3.54406e-12
-1.75104e-13
-2.023e-13
-5.79562e-12
8.77407e-13
0
-1.3633e-11
2.51741e-13
-6.77591e-12
1.30594e-12
-2.0707e-11
-1.49148e-11
5.14377e-12
3.85046e-12
-1.79272e-11
-2.14853e-11
-9.01211e-12
2.69531e-13
9.93747e-12
1.13602e-11
-5.08624e-13
-1.44667e-11
4.32652e-13
2.98322e-13
3.0931e-13
-1.009e-15
5.89636e-13
6.62367e-13
4.08529e-13
4.10785e-13
-6.42614e-12
-6.77062e-12
1.49172e-13
1.49254e-13
-5.7731e-13
1.46142e-12
6.01718e-12
4.61666e-12
-2.18987e-13
-5.29842e-13
5.08047e-12
1.10392e-11
6.12041e-12
-5.4188e-12
-1.37333e-11
-1.04723e-11
-1.99564e-11
0
-1.46919e-12
1.02633e-11
-8.83857e-12
-1.04629e-11
1.27461e-13
6.74196e-12
-1.06646e-11
-1.22414e-12
7.67324e-13
1.64495e-11
5.88417e-13
2.05335e-11
2.5871e-11
-6.02317e-13
3.13437e-13
-4.71752e-12
-1.05631e-11
2.021e-11
-1.38886e-11
4.56625e-12
-5.19569e-12
-1.08723e-11
-1.93749e-11
1.08641e-11
-1.20635e-13
-4.8186e-12
-1.11755e-11
1.17596e-12
-1.17633e-12
-1.26362e-13
9.89015e-14
9.68297e-12
-5.27656e-12
4.02608e-13
-2.92463e-13
-1.40861e-12
-8.42432e-13
-2.1321e-14
1.48801e-11
4.29894e-14
5.05296e-14
-2.98937e-13
1.25175e-11
-5.60144e-12
-5.02211e-14
-1.03652e-11
-1.1924e-11
1.71116e-12
-3.01277e-13
4.82501e-12
1.79134e-12
-1.43664e-11
2.21684e-13
-6.6699e-12
-4.31079e-13
4.83513e-12
-4.58445e-12
4.81903e-12
4.66923e-12
2.09024e-12
-5.22242e-12
-7.94911e-13
-1.6745e-13
8.34141e-13
6.88368e-14
7.02807e-14
2.89514e-14
6.06986e-12
-4.43911e-12
5.9689e-13
-9.35313e-13
-8.95995e-13
3.71335e-13
5.93798e-12
-2.97701e-13
1.78729e-12
-2.67584e-12
8.61208e-12
9.57065e-12
4.72011e-12
8.62863e-12
-8.72517e-12
3.05894e-12
4.26176e-11
2.15814e-11
-1.8135e-11
2.1737e-11
-1.08751e-13
9.84307e-13
-3.99977e-13
4.51087e-12
-9.02872e-14
-1.34445e-12
1.32939e-11
5.99491e-13
8.80768e-12
-1.16128e-14
-9.95585e-12
-9.02024e-12
2.64933e-13
-2.55186e-13
5.41548e-13
2.45592e-11
3.0099e-13
4.0785e-13
5.52624e-12
-8.78547e-12
3.03811e-13
-1.1997e-12
2.11518e-13
6.85794e-12
3.662e-13
-2.55266e-11
7.42433e-14
-3.32809e-13
1.31159e-11
0
1.25572e-12
1.40166e-11
-9.0208e-13
1.80602e-12
5.99848e-13
-2.294e-11
1.8092e-12
-1.39509e-13
0
-1.96311e-13
-1.88035e-13
-3.32895e-13
5.0955e-12
2.97326e-13
5.53988e-12
5.98282e-12
6.06621e-12
-7.46291e-13
-8.93264e-13
8.14267e-15
-1.38286e-12
1.70132e-13
-1.79588e-13
-3.4647e-13
6.24058e-12
4.34207e-12
5.19717e-12
4.46635e-13
5.60572e-12
1.33929e-11
0
-6.73994e-13
-7.37284e-14
-2.96748e-13
3.26153e-12
-5.92869e-13
-2.97476e-13
-4.87011e-12
3.6339e-13
8.21729e-12
7.54518e-12
-5.448e-12
2.7161e-12
2.94982e-12
1.01115e-11
-1.15669e-11
-4.26056e-13
-2.11045e-13
3.42688e-13
-1.06038e-11
1.17881e-12
4.06706e-12
-1.00768e-12
-8.57192e-12
-1.36639e-11
-1.71414e-12
1.09429e-11
-9.99882e-14
-6.33912e-13
4.51674e-13
-5.91464e-13
-3.94178e-12
-3.95609e-12
4.70933e-12
-3.64151e-12
-2.90453e-12
-2.9659e-12
1.86641e-13
1.0482e-13
1.1971e-13
2.18911e-11
-6.36473e-12
7.5198e-12
-2.0467e-12
2.95523e-12
-3.36942e-11
0
-4.95785e-12
5.39466e-12
1.06666e-12
2.89763e-11
-1.37012e-11
-1.1076e-11
-1.87164e-11
-3.78197e-13
5.80745e-13
-8.29718e-12
-3.5906e-13
6.23928e-12
-2.96401e-13
1.51966e-11
-1.94292e-11
-2.73025e-11
5.80931e-13
2.03255e-11
1.70486e-12
1.15384e-11
-4.784e-12
4.43417e-15
-8.32869e-12
1.06738e-11
-5.91435e-13
-9.19431e-12
1.00892e-11
-8.88941e-13
2.18924e-11
-1.78649e-12
-4.49393e-12
3.72179e-12
9.40059e-12
-1.53797e-14
-1.18416e-14
5.80758e-12
2.04921e-13
-2.68589e-13
-4.75787e-12
-4.28192e-14
-2.97813e-13
4.15705e-12
5.93528e-13
-1.18548e-12
1.4803e-13
1.47989e-13
4.73559e-12
0
-1.54106e-11
-2.96755e-13
-5.93863e-13
-4.45073e-12
6.40434e-12
9.23247e-13
3.91355e-13
-2.95918e-13
-3.80945e-13
-5.59067e-12
7.50148e-15
3.76852e-12
2.96759e-13
-4.88861e-12
2.93919e-12
1.23757e-11
0
-4.37496e-14
6.90551e-14
-6.16529e-13
8.81762e-13
1.09322e-11
2.85507e-12
-5.3274e-12
1.55294e-11
-3.17199e-13
-9.71606e-13
2.95347e-13
-9.43804e-13
8.58449e-12
1.39147e-12
2.61064e-12
-2.9601e-13
-4.43851e-12
5.7264e-12
1.31456e-12
1.9519e-14
-3.25504e-12
-2.23593e-14
3.90789e-12
-9.12629e-12
1.54523e-12
-3.9953e-12
5.91831e-13
-2.55409e-12
1.05943e-11
4.54652e-12
2.64778e-12
1.79688e-12
2.8768e-12
9.73515e-12
-3.92951e-12
-1.18385e-12
6.66008e-12
2.24821e-12
-1.23457e-13
7.91335e-12
3.20946e-13
2.66731e-13
7.97271e-13
-5.29524e-12
-4.19478e-12
1.48027e-13
7.40812e-13
3.17641e-12
-1.2346e-11
-1.42063e-12
2.94384e-13
1.77e-12
-1.32375e-11
3.81235e-12
-1.76134e-12
-4.29748e-12
-8.30887e-12
1.26034e-12
-1.21133e-11
-2.63625e-12
3.68994e-12
-5.62412e-12
4.51967e-12
1.65301e-12
1.2588e-12
-1.48395e-13
-4.45377e-12
-6.52839e-12
7.33121e-14
-1.47993e-13
-5.32658e-12
-5.91861e-13
-5.47615e-12
0
-1.48379e-13
7.42413e-13
8.89222e-13
-1.4813e-13
-1.4802e-13
-5.62176e-12
4.5855e-12
0
-5.91763e-12
-5.03257e-12
-1.48126e-13
-1.48201e-13
7.40594e-12
2.07176e-12
-7.39135e-13
4.87609e-12
7.83277e-12
-7.38931e-13
7.09224e-12
2.95634e-13
-5.62343e-12
8.73899e-12
8.88005e-13
-2.9564e-13
-5.79147e-12
-2.58221e-13
-4.43077e-13
1.18151e-12
5.16401e-13
1.29096e-12
2.58592e-13
5.18045e-12
0
4.43258e-12
-8.11537e-13
-1.73621e-12
-2.0358e-12
-1.88759e-12
-2.95388e-13
-7.00578e-13
-1.47713e-13
1.4792e-13
0
-4.43351e-12
2.43688e-12
0
7.12035e-12
-4.45026e-12
0
-4.79484e-13
-1.32957e-12
-4.58459e-12
-1.03534e-12
-1.0345e-12
-6.05519e-12
3.70124e-12
-9.79071e-12
-5.04432e-12
1.47877e-13
-2.69213e-12
4.57939e-12
4.88042e-12
-4.43783e-13
-5.61468e-12
-9.59017e-13
2.3631e-12
6.2101e-12
1.47876e-13
4.86916e-12
1.87939e-12
1.77245e-12
2.95839e-13
1.48007e-13
-4.73006e-12
-7.00789e-13
1.51172e-12
1.10646e-13
-2.5814e-13
3.31646e-13
1.88032e-12
-1.47794e-13
4.44015e-12
-1.48121e-13
-2.95963e-13
3.06601e-12
-2.95412e-13
-5.02253e-12
7.38577e-13
-2.95391e-13
-5.32038e-12
0
1.4812e-13
2.07475e-12
4.44352e-12
-5.32824e-12
-4.43738e-13
-4.43646e-12
6.21087e-12
5.1766e-12
2.95982e-13
0
4.44599e-13
-1.48056e-13
2.96026e-13
5.32642e-12
-5.91661e-13
1.47903e-13
-8.874e-12
8.8746e-13
1.1392e-11
1.48008e-13
2.96103e-13
4.4402e-12
-6.21378e-12
-5.91523e-13
-1.47845e-13
1.47847e-13
4.4353e-13
1.47835e-12
2.95733e-13
0
2.96007e-13
1.05041e-11
-2.95743e-13
5.76446e-12
-7.39012e-13
-1.4784e-13
-5.91341e-13
0
-1.15273e-11
-6.21024e-12
-2.95884e-12
2.95809e-13
-7.6876e-12
6.20756e-12
1.47854e-13
5.6217e-12
1.47929e-13
-4.43464e-13
-5.46722e-12
2.9563e-13
-2.95784e-13
0
-5.91364e-13
-7.53972e-12
-1.47938e-13
5.92257e-13
5.47802e-12
4.43688e-13
-5.91136e-12
-6.20785e-12
-2.36594e-12
-4.43665e-12
5.91349e-12
-4.5828e-12
-1.47928e-13
-5.92215e-13
1.4805e-13
-1.47891e-13
1.18222e-12
1.478e-13
5.91472e-13
-1.18322e-12
-2.9566e-13
-6.05909e-12
-4.73019e-12
7.39467e-13
4.43668e-13
-2.95562e-13
4.72752e-12
-6.35532e-12
-4.43652e-13
-7.39719e-13
-4.43584e-13
-7.09358e-12
-1.01954e-11
-2.9556e-13
4.72869e-12
-1.4773e-13
-4.43256e-13
-8.8704e-13
4.29001e-12
5.0321e-12
0
4.43571e-13
-2.95618e-13
2.95594e-13
0
-5.61602e-12
-6.06126e-12
0
-1.4799e-13
5.03355e-12
6.51203e-12
0
7.39413e-13
0
1.47858e-13
-1.47875e-13
1.47923e-13
-2.95975e-13
-2.96081e-13
7.39884e-13
-5.17839e-12
0
5.47239e-12
-4.58471e-12
0
-7.39494e-13
1.47918e-13
-5.17813e-12
-4.43912e-13
-7.54551e-12
-7.39616e-12
5.91576e-13
-2.80974e-12
-1.47879e-13
0
1.47872e-13
-2.95766e-13
-4.43747e-13
-4.2904e-12
-1.18336e-12
5.02835e-12
-1.47869e-13
1.47872e-13
6.65487e-12
1.03516e-12
6.06222e-12
-1.47854e-12
-2.95761e-13
8.87458e-13
0
-4.43632e-12
-5.91479e-12
4.43686e-13
1.0355e-12
5.91693e-13
1.47877e-13
-5.47031e-12
4.13999e-12
2.95761e-13
1.47888e-13
0
1.47882e-13
1.47927e-13
-7.39868e-13
4.58701e-12
1.47904e-13
4.43554e-13
2.95694e-13
4.28813e-12
1.03523e-12
-3.99259e-12
4.73211e-12
-4.43763e-12
0
4.73468e-12
2.66212e-12
6.06164e-12
-1.47841e-13
4.43593e-13
-5.02849e-12
-8.87233e-13
-5.76646e-12
-1.33088e-12
-6.50769e-12
-2.95788e-13
5.91406e-13
-4.73046e-12
5.0266e-12
2.95743e-13
2.95827e-13
-5.1759e-12
-4.28776e-12
-3.54823e-12
1.47847e-13
-1.47842e-13
7.39119e-13
-8.8696e-13
1.47859e-13
0
2.95887e-13
-2.36658e-12
-1.47873e-13
8.87101e-13
6.20936e-12
1.47835e-13
5.17429e-12
0
6.50729e-12
5.47327e-12
-1.77563e-12
-4.58614e-12
5.17658e-12
-1.03512e-12
-1.4786e-12
-6.35785e-12
-4.87959e-12
-1.47891e-13
2.95851e-13
-2.95913e-13
1.33137e-12
-5.17706e-12
-4.88075e-12
0
-2.95768e-13
4.73221e-12
-7.39421e-13
-6.21151e-12
-1.47911e-13
2.95844e-13
0
-2.9581e-13
0
-2.9577e-12
-1.47884e-13
1.47881e-13
0
-5.91513e-13
-1.47892e-13
-1.47904e-13
-5.47222e-12
3.99303e-12
-4.43651e-13
7.39447e-13
6.35962e-12
8.87363e-13
5.47151e-12
4.28822e-12
4.43624e-13
5.91543e-12
1.47886e-13
-1.47883e-13
-1.12396e-11
-1.47909e-13
-1.77512e-12
7.39604e-13
2.95786e-13
-5.17537e-12
4.14011e-12
-1.47867e-13
-2.95764e-13
2.95763e-13
0
0
-1.18362e-12
-5.47396e-12
0
-1.47871e-13
6.80132e-12
6.35787e-12
4.43638e-12