/*--------------------------------*- C++ -*----------------------------------*\
  =========                 |
  \\      /  F ield         | OpenFOAM: The Open Source CFD Toolbox
   \\    /   O peration     | Website:  https://openfoam.org
    \\  /    A nd           | Version:  10
     \\/     M anipulation  |
\*---------------------------------------------------------------------------*/
FoamFile
{
    format      ascii;
    class       volScalarField;
    location    "0.2";
    object      gradTx;
}
// * * * * * * * * * * * * * * * * * * * * * * * * * * * * * * * * * * * * * //

dimensions      [0 -1 0 1 0 0 0];

internalField   nonuniform List<scalar> 
47104
(
1.3959e-13
-6.19299e-15
5.86824e-13
5.51545e-13
-1.94693e-13
1.55231e-13
2.56201e-13
5.25537e-14
-2.57264e-15
-1.39584e-13
9.32208e-15
-9.24761e-14
1.39935e-13
-5.38449e-13
1.36972e-14
5.56016e-12
1.95605e-13
-4.78693e-12
-4.23472e-12
-3.73577e-12
-1.39536e-13
9.21406e-14
3.52639e-12
2.82538e-14
-4.1619e-12
1.96101e-13
6.24284e-13
2.23745e-13
6.41274e-13
2.88441e-13
-2.98316e-12
-3.25407e-12
-6.4076e-13
5.48299e-14
-1.34284e-13
1.13237e-13
-5.54172e-13
-1.31221e-13
7.98227e-13
1.57889e-13
1.4855e-13
5.42096e-14
1.93162e-14
-1.49451e-13
-1.59357e-14
-1.88481e-13
5.34344e-14
-1.49982e-13
1.7877e-13
0
0
8.5555e-13
1.64541e-13
-8.74391e-14
1.19175e-13
2.31176e-12
-1.50284e-14
6.32528e-13
-1.99229e-13
-3.56508e-12
3.41119e-12
5.18543e-13
-3.66415e-12
3.16395e-13
-4.78167e-13
6.67922e-15
4.82651e-13
2.85894e-12
-1.18982e-13
-2.8161e-12
4.56183e-13
-2.05149e-13
-4.24882e-13
-5.03056e-12
5.61341e-14
5.23562e-12
-1.40107e-13
-4.55098e-14
7.04264e-13
7.35228e-13
-1.39766e-13
1.80739e-13
5.71212e-13
-1.59196e-13
-5.49235e-13
1.03367e-13
4.19518e-12
-2.12564e-13
1.04851e-13
4.01548e-12
1.39609e-13
4.66196e-13
-1.21779e-13
-3.50837e-13
-3.91226e-12
1.61011e-14
3.25978e-12
-3.62186e-12
6.0365e-13
3.43866e-12
-1.49214e-13
-2.17131e-13
-2.76902e-12
8.90406e-14
2.82477e-12
-2.09818e-14
1.02301e-13
-2.00531e-13
9.36317e-14
4.47613e-13
-1.49336e-13
-6.35446e-12
-3.31863e-12
6.76468e-12
3.26381e-12
5.30955e-12
3.54842e-12
-9.69452e-12
-3.4816e-12
4.18117e-12
3.13544e-12
4.93795e-12
-3.7619e-12
1.16772e-12
-3.50106e-13
-8.29713e-12
1.64078e-11
-7.659e-12
0
1.493e-13
1.49207e-13
-1.57016e-12
-2.31678e-13
0
-1.02173e-11
1.00908e-11
-3.18502e-14
-6.49083e-12
-4.2244e-12
0
-1.49167e-13
1.30873e-12
2.1768e-12
-2.34314e-12
6.28862e-14
-6.44723e-12
6.74928e-12
-6.41436e-13
-4.18783e-12
-4.02729e-12
3.43105e-12
4.00114e-12
5.59002e-13
6.53321e-13
6.33843e-12
-6.68994e-12
9.22504e-12
-9.05708e-12
-5.04793e-12
1.19331e-12
8.65549e-12
1.86944e-13
-5.5625e-12
-7.02517e-12
7.29437e-12
4.21874e-14
-1.85224e-13
9.34353e-12
-8.22492e-13
7.75915e-12
0
-2.61892e-13
1.0458e-11
-1.01227e-11
4.87938e-13
9.52966e-14
-1.40128e-12
2.58775e-13
1.57122e-12
1.49319e-13
3.43518e-12
3.74197e-12
-3.61731e-12
-3.54799e-12
-6.46312e-13
-1.91346e-13
-6.35134e-13
4.46261e-13
-2.68908e-12
-3.43492e-12
-1.4921e-13
1.74156e-13
-4.55508e-13
4.39411e-13
-5.31449e-12
-3.86427e-12
5.47556e-12
3.56385e-12
-2.29462e-13
-2.98422e-13
1.49189e-13
4.50329e-12
3.56676e-12
-4.70665e-12
-3.24104e-12
-6.15742e-14
-1.48677e-13
1.49571e-13
-1.45041e-13
0
2.2388e-12
-9.73368e-12
5.60358e-12
-9.02386e-12
9.26206e-12
-5.92946e-13
-4.17482e-13
5.19459e-13
1.77182e-13
-2.83555e-12
6.26236e-12
4.31216e-12
8.01718e-13
-9.79123e-13
1.80747e-13
-3.68656e-13
7.20878e-13
9.45481e-14
4.62249e-13
2.23645e-12
-2.53264e-12
9.23717e-12
-1.31493e-12
-2.30909e-08
-2.39972e-09
5.45199e-10
7.20172e-09
3.9956e-10
-6.11841e-14
-1.34076e-12
-2.98048e-13
3.61196e-13
2.24502e-12
-3.35587e-08
1.06515e-09
-2.49231e-10
-2.55206e-09
1.90039e-10
-1.1339e-11
0
2.98074e-13
1.13052e-13
6.0795e-12
-3.44967e-08
1.13529e-09
-2.63588e-10
-2.69541e-09
1.8127e-10
2.63411e-13
-1.78827e-12
-1.7882e-12
3.10371e-12
1.14012e-11
-2.95509e-08
7.34353e-10
-1.63309e-10
-1.86308e-09
2.59705e-10
-4.05737e-13
0
-1.34242e-12
2.06276e-12
1.05183e-12
-7.16431e-11
-4.59951e-12
-5.8305e-12
2.17602e-11
-2.57059e-11
1.05857e-11
-4.47381e-13
1.49293e-13
6.56074e-12
-5.88811e-12
-1.0576e-11
9.80865e-12
6.66118e-12
-6.47377e-12
-4.13358e-13
-4.86068e-13
2.98547e-12
-4.17716e-12
4.63789e-12
4.09549e-12
-5.16981e-12
4.50825e-13
-6.65247e-13
-4.1339e-14
3.137e-13
1.54756e-13
0
-3.57238e-12
-2.42646e-12
-7.18142e-14
-1.53572e-12
-5.10462e-12
-2.83708e-13
8.53402e-12
-1.98981e-14
-3.35886e-12
-1.48823e-13
1.48615e-13
3.41757e-13
-6.80916e-12
-6.27581e-13
-1.60593e-12
1.43735e-12
3.10666e-12
6.24408e-12
-9.85457e-13
-3.12047e-12
4.42901e-13
8.54961e-12
-2.8238e-10
-1.64209e-08
-3.9366e-11
2.63342e-10
1.16221e-09
3.79553e-08
1.91889e-08
1.91914e-12
-1.32021e-12
1.41206e-09
3.71524e-06
-0.323844
-0.00172541
0.000108415
0.00465172
0.24016
1.14536e-07
-4.9873e-12
8.78971e-13
1.39302e-09
3.81759e-06
-0.489354
-0.0058982
0.000349887
0.0167004
0.317918
8.81006e-08
-1.31839e-12
5.27437e-12
1.39188e-09
3.84825e-06
-0.491733
-0.00614914
0.000367402
0.0171502
0.319094
8.65682e-08
1.02545e-12
2.34775e-12
1.40341e-09
3.78624e-06
-0.485901
-0.00560324
0.000330154
0.0160694
0.315831
9.33277e-08
1.46701e-13
-4.87385e-12
8.36342e-10
3.94992e-06
0.0445111
-0.000395597
-0.000615045
-0.000801871
-0.0438901
-1.11168e-08
1.77188e-12
1.48658e-13
4.93963e-13
8.7713e-10
1.20585e-09
1.19638e-11
-8.40039e-12
-1.14439e-10
-1.11222e-09
-9.60396e-12
1.18911e-12
-5.95366e-13
4.06811e-12
4.01898e-13
-4.54987e-13
1.71154e-13
-3.93801e-12
-5.58554e-14
4.806e-12
3.31244e-13
-4.61436e-12
-7.43326e-13
-2.85815e-13
2.40799e-13
9.35572e-15
2.08956e-13
6.62435e-14
-3.85477e-12
3.45579e-13
3.85414e-12
0
7.27115e-12
5.71813e-12
-1.47542e-12
1.62698e-12
3.60715e-11
-5.99191e-12
-9.81969e-11
-7.31785e-12
7.1559e-12
-3.85748e-12
6.61169e-12
-1.22099e-11
-3.43735e-07
0.0067869
0.000173284
3.96944e-05
-0.000281038
0.000280532
1.16427e-07
-7.19907e-12
5.80578e-13
9.69714e-11
-0.23707
2.95563e-05
-5.80558e-13
1.44572e-13
-1.29659e-08
-0.288909
6.37673e-05
1.30106e-12
-7.22971e-13
-1.20082e-08
-0.289444
6.38458e-05
7.80655e-12
-1.45219e-12
-1.4712e-08
-0.288031
6.34141e-05
2.90298e-13
1.61697e-12
-9.92536e-10
0.0112999
-5.37349e-06
2.79191e-12
-1.33582e-12
-2.89361e-16
1.44466e-09
3.64735e-07
6.63168e-08
-1.39141e-08
-3.28559e-07
1.89742e-07
3.05296e-11
-1.1873e-12
-1.4865e-13
5.95725e-13
1.26818e-13
-4.18902e-12
1.78155e-13
8.82667e-12
-1.25828e-13
-1.05996e-12
1.42676e-13
-4.75738e-12
2.23059e-12
1.06373e-14
-2.10691e-12
-1.27757e-13
9.36583e-14
-6.47913e-14
8.08664e-14
-5.68096e-13
1.9547e-13
4.46039e-13
3.41643e-12
1.67518e-11
-9.50096e-12
-5.1721e-11
5.00914e-11
-8.43437e-12
-1.30223e-10
-4.42993e-13
7.84209e-13
-1.48512e-12
-1.47038e-12
-1.35246e-11
-3.5821e-07
0.00840149
0.000220021
3.108e-05
-0.000412681
0.000323893
1.19809e-07
6.91013e-12
0
3.07557e-09
-0.24367
3.07323e-05
-4.35073e-12
-1.29898e-12
-1.42384e-08
-0.301532
8.15103e-05
7.21576e-13
1.01047e-12
-1.30029e-08
-0.302283
8.18026e-05
-2.88636e-13
-8.70743e-13
-1.40384e-08
-0.299404
7.97579e-05
6.5264e-12
-4.85474e-12
-1.04689e-10
-0.00217391
-5.66176e-06
-3.52905e-12
-4.60538e-12
-4.62335e-12
1.50263e-09
4.02467e-07
1.06004e-07
-2.32261e-08
-5.86002e-07
1.20056e-07
1.12145e-11
3.41687e-12
1.48683e-13
7.83541e-14
4.06371e-12
7.97293e-14
-4.39986e-12
-2.86909e-14
2.08397e-13
3.9223e-12
1.45782e-13
-4.01517e-12
-1.63671e-12
-7.31702e-13
6.51932e-13
-6.35534e-13
7.0043e-14
2.46229e-13
1.32715e-13
-9.13025e-14
1.65864e-13
-1.48767e-13
8.92052e-13
-1.40538e-11
1.24987e-11
-7.49522e-11
4.98081e-11
-7.99586e-12
-1.3478e-10
1.63598e-12
-2.92061e-13
5.05372e-12
7.5067e-12
-8.84573e-12
-3.5897e-07
0.00843689
0.000216503
2.14203e-05
-0.000428149
0.00032601
1.20282e-07
-1.61863e-12
-1.16133e-12
3.97407e-09
-0.243862
3.06674e-05
-1.30601e-12
0
-1.2906e-08
-0.30206
8.18299e-05
-4.3314e-12
7.65409e-12
-1.14115e-08
-0.302898
8.21362e-05
-4.33148e-13
2.03285e-12
-1.5757e-08
-0.300939
8.00376e-05
-1.16095e-12
-1.47242e-13
4.02002e-11
0.0118099
-5.68515e-06
9.12451e-12
-2.82511e-12
9.61357e-12
1.47199e-09
4.11473e-07
1.10191e-07
-1.97571e-08
-4.49249e-07
2.19796e-07
2.03656e-11
2.9738e-12
-4.90925e-12
-2.55767e-13
1.08805e-12
3.93582e-12
8.11033e-12
-4.14779e-12
-7.2009e-12
8.33598e-15
3.23532e-12
-1.48797e-13
-6.99635e-12
1.14335e-13
6.92325e-12
1.37819e-13
4.38406e-12
-3.52634e-12
-3.99702e-12
3.33634e-12
5.90567e-13
5.9536e-13
2.975e-13
-2.24436e-12
2.08454e-12
-7.58254e-11
4.83345e-11
-1.43363e-11
-1.18293e-10
-8.83731e-12
6.43429e-14
1.48717e-13
-1.17843e-12
-2.3093e-11
-3.5784e-07
0.00844305
0.000216062
2.01133e-05
-0.000430003
0.000325974
1.2001e-07
1.76678e-12
4.35923e-13
-1.39362e-08
0.0368752
3.06939e-05
4.35612e-12
2.89049e-13
-1.2995e-08
-0.301707
8.18598e-05
2.88958e-13
8.67095e-13
-1.1343e-08
-0.302944
8.21664e-05
-8.6689e-13
6.24752e-12
-1.55966e-08
-0.30105
8.00645e-05
1.01648e-12
1.91528e-12
4.02451e-11
0.0118175
-5.68828e-06
1.47252e-12
-4.01684e-12
-8.54505e-12
1.46146e-09
4.12721e-07
1.10225e-07
-2.14649e-08
-4.82546e-07
2.14008e-07
1.22314e-11
2.97536e-13
0
-4.13964e-12
-6.69967e-14
8.41679e-12
-2.94175e-14
-3.90854e-12
-9.37302e-14
-4.0557e-14
7.48175e-15
0
2.38246e-12
-3.45163e-13
-3.07292e-12
-3.37546e-12
-2.82911e-13
3.22049e-12
-7.44286e-14
-1.33948e-13
8.5571e-13
1.48897e-13
-2.82702e-12
7.46647e-14
-2.97849e-13
-5.35614e-11
4.29147e-11
-6.23121e-12
-1.48482e-10
-2.05338e-12
1.93433e-11
-1.19021e-12
-3.6845e-12
7.07801e-12
-3.58343e-07
0.00842446
0.000215366
2.33154e-05
-0.000422825
0.00032501
1.19624e-07
-1.47323e-12
1.74551e-12
-1.16209e-08
0.0621681
3.08781e-05
-1.01763e-12
-2.8948e-13
-1.40828e-08
-0.301506
8.16592e-05
0
-3.76319e-12
-1.24831e-08
-0.302697
8.19533e-05
5.20935e-12
-4.36381e-13
-1.64714e-08
-0.30084
7.99039e-05
1.45383e-13
-1.32676e-12
4.87194e-11
0.0118132
-5.68068e-06
-3.24153e-12
1.33945e-12
1.83756e-14
1.45839e-09
4.09586e-07
1.06125e-07
-2.30838e-08
-5.87212e-07
1.19665e-07
2.58567e-11
-1.48823e-13
-1.48892e-13
-2.10648e-14
6.69522e-13
-3.52962e-12
-6.04377e-13
3.08693e-12
-1.36046e-13
2.28528e-13
-4.73197e-13
-2.9785e-13
-1.48928e-13
-4.63713e-14
-4.46379e-12
2.09596e-14
4.33748e-12
1.00119e-13
-4.1563e-14
5.04206e-12
-1.54134e-13
-4.91496e-12
5.35724e-12
6.92211e-12
5.9562e-13
-1.42759e-10
-1.56366e-11
2.33675e-12
4.02103e-11
-8.78088e-12
7.31723e-12
-7.44125e-13
6.34101e-12
-7.05747e-12
-3.55737e-07
0.0071781
0.000168122
2.20595e-05
-0.000317345
0.00030313
1.17798e-07
6.34026e-12
6.99551e-12
8.4857e-09
-0.239683
2.093e-05
4.51672e-12
-1.45175e-13
7.46258e-09
-0.293254
2.75857e-05
1.4514e-13
6.38817e-12
8.74623e-09
-0.293912
2.73914e-05
-1.45143e-13
-1.89519e-12
4.29925e-09
-0.292483
2.94097e-05
1.31139e-12
-5.31121e-12
-1.09106e-11
0.0115001
-5.15327e-06
3.09686e-12
-2.53076e-12
-7.1807e-13
1.29361e-09
3.06354e-07
3.34147e-08
-6.03377e-09
-1.4346e-07
1.74178e-07
2.32292e-11
4.466e-13
-1.4893e-13
2.42389e-12
4.73984e-12
-2.01157e-12
-4.8648e-12
-5.60682e-12
-5.08579e-12
5.57718e-12
5.25277e-12
1.48962e-13
-1.48929e-13
-1.83162e-13
3.87081e-12
-4.52513e-13
-5.52661e-13
5.86482e-13
-4.22124e-12
5.02111e-13
9.52936e-13
-4.46866e-13
1.48808e-13
-6.10581e-13
-7.44174e-12
8.45552e-12
2.18135e-13
2.94465e-13
2.03493e-14
-9.42618e-12
1.63428e-11
-5.95355e-12
-1.62212e-12
-1.49852e-11
-3.44875e-09
4.36973e-08
1.13235e-09
-2.07859e-10
-2.23086e-09
-2.95724e-07
5.83358e-10
-8.84718e-13
1.45742e-13
-1.02047e-11
-5.4766e-06
-1.79542e-08
2.9141e-13
-1.45199e-12
7.85688e-12
-5.65368e-06
-1.88219e-08
4.64463e-12
1.45216e-13
-8.6273e-12
-5.07678e-06
-1.88784e-08
1.4515e-13
5.10307e-12
1.61107e-12
-5.65514e-06
-1.86283e-08
-7.86888e-12
0
-4.61767e-12
-4.67273e-06
1.35759e-08
2.80212e-12
-1.04221e-12
4.06026e-12
5.7301e-12
-1.82306e-10
-1.58395e-11
1.0069e-11
4.95128e-11
-6.89329e-10
-4.82379e-13
-1.48875e-13
4.46835e-13
-5.53906e-13
4.15205e-12
-2.55494e-12
-4.34838e-12
3.31527e-12
-2.84756e-14
6.06257e-15
6.60287e-14
-1.48971e-13
-1.9359e-12
-5.06522e-12
-3.42881e-12
3.30687e-13
3.97194e-13
-1.03209e-12
-5.6462e-13
1.20035e-13
7.76827e-14
0
-8.92728e-12
-5.69037e-12
6.84992e-12
-6.67745e-12
7.26442e-12
-7.50294e-12
-7.34666e-12
7.35451e-12
5.95278e-13
-7.44103e-13
-1.47353e-13
-8.3484e-12
-8.30782e-12
-1.96747e-11
5.11938e-13
-2.01985e-11
-1.18096e-12
2.74086e-13
1.27275e-11
-6.92518e-12
1.89048e-12
1.12748e-11
-1.47574e-11
-9.43848e-13
0
5.79035e-13
3.00052e-13
-7.6857e-12
-3.6573e-13
0
-1.59252e-12
2.96822e-12
9.9689e-14
1.51677e-11
-2.60511e-12
2.76405e-12
4.1656e-12
-5.71606e-12
-3.64231e-13
-4.79898e-12
6.19269e-12
5.45527e-12
1.43545e-13
6.58025e-13
-8.6958e-12
1.48876e-13
-4.37038e-13
1.02086e-12
-7.20254e-12
6.76809e-12
-8.14148e-12
8.65565e-12
-8.48734e-12
9.60082e-12
2.97706e-12
-4.02134e-12
-5.11776e-12
8.38328e-13
5.52933e-12
3.65296e-12
6.27615e-14
-5.25815e-12
-3.42781e-12
4.98354e-12
3.87291e-12
-4.46707e-12
3.45689e-12
4.54238e-12
-7.9875e-12
-1.10677e-13
6.68223e-13
4.20489e-13
3.40733e-12
-1.70311e-13
2.97875e-13
1.04145e-12
-1.06252e-11
8.33591e-12
1.99273e-12
-1.66345e-12
-1.02446e-11
1.01262e-11
-8.82551e-13
4.08707e-13
-7.44024e-12
1.4729e-13
3.44441e-13
-2.60682e-13
-5.79757e-13
-5.8972e-13
7.48187e-13
1.26364e-12
1.41261e-11
-3.4571e-12
-8.24805e-12
-1.45264e-13
-1.12277e-11
1.70765e-11
2.68866e-12
-4.7933e-12
-7.37167e-12
-8.02696e-12
-4.07456e-14
-1.1352e-11
1.44528e-13
1.44554e-13
-8.67323e-12
1.18599e-11
1.4675e-13
-1.58993e-12
-5.52146e-12
-9.69424e-12
1.49217e-11
-4.37366e-12
-6.68388e-12
1.62091e-12
-5.81343e-12
1.541e-11
-1.44725e-11
1.47352e-13
5.95389e-12
4.05015e-12
9.25943e-13
2.3912e-12
-1.8485e-14
-9.41386e-12
-6.68742e-13
1.46489e-12
8.77559e-12
-5.95354e-12
2.97845e-13
3.02649e-13
8.21334e-13
3.78181e-13
-1.33102e-12
-6.71066e-13
4.26456e-12
-2.67619e-14
-4.17167e-12
8.93643e-13
-5.9558e-13
1.70599e-13
3.55961e-13
-5.10988e-14
-1.14954e-13
3.42838e-12
-3.51874e-12
-3.61783e-12
3.98994e-12
0
1.4877e-13
-2.38324e-14
5.95492e-13
8.02782e-12
-1.77712e-11
9.24444e-12
4.25347e-13
0
2.90412e-13
-7.43998e-13
-2.20912e-12
-6.90692e-13
-4.97825e-12
2.09165e-11
1.7107e-11
-5.8329e-13
-1.88891e-11
1.92185e-12
4.54184e-13
1.47274e-13
6.09986e-12
4.54945e-12
-7.00142e-12
-2.10799e-12
-9.29447e-12
-1.58952e-12
-9.75817e-13
4.59434e-13
4.17662e-12
-4.62383e-12
-7.22565e-13
6.54879e-13
1.47849e-11
5.8731e-13
-1.30052e-12
-2.90557e-13
-3.34502e-12
-7.03221e-12
1.10866e-11
-1.45258e-12
7.51392e-12
1.09531e-11
-2.49143e-11
1.13553e-13
2.65174e-12
0
-7.84729e-15
0
6.62522e-12
5.04482e-12
-1.17196e-11
6.69327e-12
-6.73541e-12
-5.89782e-13
-8.18566e-12
-1.4891e-13
5.23408e-12
5.53234e-12
-1.0896e-11
-5.15585e-12
5.0763e-12
-2.39993e-13
3.127e-13
-1.04365e-12
-1.04252e-12
5.95574e-13
7.218e-13
-2.14125e-13
2.61702e-13
-1.27068e-15
-6.79062e-14
-6.07242e-14
-3.3376e-12
-3.34197e-12
1.48932e-13
1.63635e-12
-6.94112e-12
6.65258e-12
-1.7011e-13
-4.3602e-13
-2.61619e-13
2.45143e-13
2.94195e-13
1.03189e-11
-1.33921e-12
-8.83745e-13
-3.18127e-13
-5.41163e-12
3.24654e-11
-1.05836e-12
-9.70832e-13
1.29502e-12
1.35226e-11
-7.28114e-12
-2.50392e-12
-7.4095e-12
2.70087e-12
-1.21348e-11
2.90691e-13
-1.88848e-12
-4.77045e-12
-3.92245e-12
1.00579e-12
-2.71043e-12
1.30097e-12
0
1.67177e-14
3.86948e-12
1.39452e-12
-5.7823e-13
0
-7.48264e-15
-2.21448e-11
-4.44932e-12
2.32452e-12
-1.47359e-13
-3.0226e-12
9.64101e-12
-3.87889e-12
-4.41948e-13
4.46455e-13
2.74239e-13
6.94865e-12
3.03434e-12
-9.45086e-12
-2.84263e-13
-4.99766e-13
1.05686e-12
2.05795e-13
1.04181e-12
1.4891e-13
1.42527e-13
-4.57383e-14
7.87321e-14
-1.7059e-13
8.90724e-14
-9.64675e-15
1.60813e-13
-5.07207e-12
-4.91484e-12
0
2.19879e-13
-3.42015e-13
1.29343e-14
2.6127e-13
-5.65714e-14
6.64843e-14
-1.20898e-14
5.37085e-14
1.48946e-13
-1.48766e-13
3.70555e-13
-1.85104e-13
2.61316e-13
3.58504e-13
4.14117e-13
1.18038e-12
-8.82347e-13
6.97018e-15
-1.1905e-12
1.47355e-13
-4.24638e-12
9.61801e-13
1.73826e-12
3.01256e-12
-2.24016e-11
-1.68045e-11
1.62873e-12
4.99959e-12
-1.03152e-12
8.72846e-12
1.94831e-12
4.70864e-13
5.80728e-13
-5.81833e-12
1.73779e-12
-8.30543e-12
4.03581e-12
-1.11192e-11
2.31695e-12
-2.89652e-13
9.62701e-12
-1.24467e-11
-1.04804e-11
-2.17218e-12
-1.89162e-12
5.8186e-12
-7.67234e-12
-1.7486e-12
-1.16369e-12
7.37063e-12
1.13485e-11
-6.61466e-12
-1.05302e-11
1.32636e-12
-1.0418e-12
-7.01224e-12
7.54704e-12
-2.83588e-13
4.33704e-13
-3.48554e-14
9.07504e-12
-1.64581e-13
-1.02792e-12
-2.67913e-12
-1.48925e-13
-2.45804e-14
3.61181e-13
-3.8535e-12
-4.14033e-12
4.3734e-12
3.38371e-12
-6.86409e-13
-4.55155e-12
-5.21329e-12
-2.97865e-13
1.50742e-13
2.77733e-13
-1.47819e-13
-1.50453e-13
-1.58283e-13
9.31085e-14
4.97045e-12
-1.74402e-13
-4.61818e-12
6.99413e-12
-1.62773e-12
6.84261e-12
6.07701e-13
3.0654e-13
-5.27532e-13
-1.29828e-13
7.313e-14
1.06241e-13
7.44283e-13
3.6868e-12
3.93303e-12
8.86705e-14
5.15607e-13
-7.06784e-13
1.79486e-12
3.2032e-11
1.25841e-11
0
-5.89987e-13
-7.28878e-13
-1.17393e-11
2.53798e-11
4.75737e-13
0
7.26129e-13
-1.62281e-12
-2.25927e-11
-3.68492e-13
1.01654e-12
4.35701e-13
1.22253e-12
-5.45248e-12
2.95315e-13
4.35664e-13
0
-8.0254e-12
1.23323e-11
1.90869e-12
1.45769e-13
0
-2.41344e-13
1.31814e-11
-3.57939e-12
1.47494e-13
-2.08433e-12
-8.06261e-13
-6.52957e-12
-1.30939e-12
7.3793e-12
-7.27834e-12
-5.15888e-13
1.02782e-11
-1.68201e-11
6.2531e-12
4.4688e-12
1.08877e-13
-7.85853e-12
-1.68547e-13
3.4118e-12
-1.92863e-13
3.27245e-12
-9.21744e-14
-3.52923e-12
-2.97966e-13
0
-5.02902e-13
7.48924e-14
1.05613e-13
8.50717e-14
-2.83331e-15
-3.2534e-12
7.49074e-15
3.15966e-13
-3.1287e-12
-5.20949e-12
-4.53255e-12
6.25456e-12
-6.66689e-12
1.15372e-11
-1.11681e-11
-2.70177e-13
-2.9455e-13
5.08073e-13
1.93535e-12
1.03236e-12
-2.26264e-13
5.25379e-13
4.77402e-14
-5.02709e-13
2.2198e-13
1.15815e-11
-3.67743e-13
-6.89245e-12
1.47476e-12
-6.40962e-12
-1.52857e-11
4.21911e-12
-2.18824e-13
5.82614e-13
2.17582e-12
-2.1857e-12
5.80907e-12
2.2112e-13
2.32074e-12
1.45061e-13
9.75114e-12
-8.05417e-12
9.45044e-12
7.54251e-12
7.28426e-13
6.60427e-13
1.13082e-11
7.122e-12
-3.93269e-12
2.95026e-13
-4.85456e-12
4.01775e-12
-5.00535e-13
-5.89946e-13
-2.6803e-12
-4.42125e-13
-7.18821e-13
-8.22034e-12
8.72028e-12
-9.79138e-13
2.01571e-12
-8.76279e-12
-3.54251e-12
2.97819e-12
-4.17141e-12
-3.13943e-12
4.40138e-12
3.05735e-12
-8.21525e-14
2.6388e-13
1.80349e-13
1.22413e-13
2.1166e-13
-4.47009e-13
0
6.76094e-13
1.33553e-13
-6.06802e-13
3.99022e-13
-3.31328e-12
2.89933e-12
3.48295e-12
-3.59737e-12
1.48972e-13
-9.97136e-12
-1.62788e-12
-1.51936e-11
-4.2146e-12
1.16518e-11
-9.71586e-12
1.01905e-11
-1.89906e-13
-6.46804e-12
7.44183e-13
0
3.87485e-13
-1.88558e-12
1.73739e-12
1.35472e-13
-1.4884e-11
-1.38765e-11
1.39723e-11
-1.93446e-13
5.89419e-13
1.30861e-12
-7.88026e-12
-5.01589e-12
1.27808e-11
-3.05265e-12
-1.01274e-12
9.38995e-13
-1.94565e-11
-9.73001e-12
1.73598e-12
5.78738e-12
5.37798e-12
1.89409e-12
-3.3714e-12
4.34008e-12
-1.45423e-12
2.38535e-12
-9.12437e-12
-2.25876e-12
-2.76214e-12
3.83287e-12
7.4396e-12
4.027e-12
-3.12896e-12
-8.69553e-12
-2.53085e-12
6.90284e-12
4.22753e-12
-1.02573e-12
-2.73105e-12
-7.88053e-12
8.78766e-12
-1.75583e-12
-8.61135e-12
-6.55108e-12
1.48969e-13
-1.72819e-13
-5.27715e-12
-1.80993e-13
5.30039e-12
1.51442e-13
-9.5962e-14
-6.99392e-14
6.53175e-14
1.48999e-13
0
3.96713e-12
-3.77561e-12
-3.89329e-12
3.40105e-13
2.37197e-14
3.47617e-12
-1.31547e-13
-3.72398e-14
1.48977e-13
1.04181e-12
-8.95012e-14
-8.93349e-13
1.44447e-12
-2.33459e-13
1.36816e-13
-4.01061e-13
6.79563e-12
-6.86309e-12
5.95317e-13
1.17876e-12
-3.32888e-12
2.2496e-11
1.1597e-12
5.89797e-13
2.42592e-12
2.68221e-13
1.41875e-11
2.27617e-12
8.39719e-12
-1.59843e-12
2.16853e-13
9.69257e-12
8.93986e-12
-2.90563e-13
1.59023e-12
-8.83081e-12
1.64477e-11
1.9046e-12
1.15644e-12
-1.01204e-12
-1.31215e-12
3.28039e-12
3.66964e-12
-1.59023e-12
7.12228e-12
6.45446e-12
4.91759e-12
9.40887e-12
-8.71865e-12
-2.94798e-13
2.80046e-12
-4.74805e-12
5.34249e-12
-4.71572e-12
2.97739e-13
8.79863e-14
1.11778e-11
-1.05027e-11
-8.55477e-12
8.64271e-12
-1.58995e-13
0
-1.74783e-13
1.34007e-12
-7.44865e-13
1.08861e-13
1.00278e-12
4.69782e-12
-9.34632e-13
-1.3044e-12
5.52301e-12
-3.66017e-12
-5.09634e-12
1.49011e-13
4.17261e-12
3.85539e-12
-6.42593e-13
9.93827e-14
4.22469e-12
9.70497e-14
-4.14123e-12
-2.18842e-14
-2.59957e-13
0
5.95548e-12
-2.14477e-12
8.34267e-12
9.02826e-14
2.10233e-13
-8.22109e-13
6.49663e-13
0
-7.51779e-12
6.84823e-12
2.94799e-13
-1.44871e-11
2.11133e-11
5.81139e-13
2.30055e-11
1.50812e-11
-2.09217e-11
-9.81001e-13
-1.07015e-11
1.47373e-12
-5.37911e-12
-7.89074e-12
5.17783e-12
3.56157e-12
8.72116e-13
1.44649e-13
-2.31363e-13
1.15297e-12
3.29672e-12
2.74815e-12
2.89316e-13
-5.88195e-14
-1.09866e-11
2.42206e-12
4.48456e-12
1.59962e-12
-1.1006e-12
3.60311e-12
7.65911e-12
-1.45427e-12
-2.94883e-13
-8.84308e-13
5.75551e-13
-7.98746e-12
8.8473e-12
1.48905e-12
9.74515e-12
-1.69175e-11
7.13584e-12
-1.11829e-11
3.62355e-12
-3.39669e-13
7.02745e-12
7.12012e-12
8.04372e-12
-1.49017e-13
-3.1227e-12
4.98551e-13
6.34781e-12
-2.54232e-13
-3.24948e-12
-9.86556e-14
-3.61507e-12
-1.51075e-13
3.72665e-12
3.28098e-12
3.08109e-13
-4.21088e-12
-4.80976e-14
3.94609e-13
1.99336e-13
1.11339e-13
-2.01472e-13
-3.9486e-12
-4.17568e-12
-1.04316e-12
-2.18493e-16
2.97993e-13
4.15187e-13
-8.73261e-14
6.33739e-12
-6.57361e-12
8.77097e-12
-9.24812e-12
-1.04304e-12
-4.57647e-12
3.8752e-12
1.19756e-12
-1.56881e-11
-2.35867e-12
-1.95718e-12
-1.4707e-11
3.86552e-13
2.17877e-12
1.62351e-12
-1.4574e-13
3.6894e-14
-2.27549e-12
-8.71472e-13
0
-4.35214e-12
-9.61345e-12
2.62926e-13
2.9999e-12
4.78701e-12
0
7.69172e-12
3.28658e-12
-2.78518e-12
2.9018e-13
7.14223e-12
7.39127e-12
8.74727e-13
2.18831e-12
-5.68601e-12
-1.47649e-13
-1.01728e-11
2.3876e-11
0
2.51066e-12
-1.34125e-12
-4.13161e-12
-7.2478e-12
7.04523e-12
-2.26294e-12
1.0803e-11
-8.63267e-12
2.92614e-13
4.28896e-13
1.16292e-11
0
-3.35547e-12
-7.78344e-15
3.37814e-12
-1.48023e-13
8.41388e-14
4.72083e-13
-9.57038e-14
-1.69722e-13
4.47521e-13
0
2.21423e-13
7.29403e-14
-1.93938e-13
7.06249e-14
4.35971e-14
-9.46804e-14
-6.31973e-14
-5.10594e-12
-5.07476e-12
2.83575e-12
-5.23257e-13
5.96371e-13
1.94092e-13
1.30396e-13
-2.96224e-13
-9.70888e-13
6.40832e-13
-9.28854e-12
-3.28319e-12
4.44584e-13
9.69078e-13
-1.8431e-11
4.05753e-12
2.39408e-13
2.08754e-12
-1.12961e-12
-2.00347e-11
-1.51421e-11
-5.92679e-13
5.87248e-12
-5.96279e-12
1.14285e-11
-5.65852e-12
0
-3.22027e-12
2.2358e-12
-3.21169e-12
3.79844e-12
-2.34174e-12
7.31905e-13
6.70592e-13
8.67747e-12
4.02344e-12
-1.171e-12
1.1746e-12
8.61343e-12
-1.15284e-11
6.33206e-12
-1.17459e-12
-1.63027e-12
-4.42604e-13
1.16225e-11
-9.92946e-12
1.18583e-12
6.86515e-12
-2.19251e-12
-1.2244e-12
8.0979e-12
1.10562e-14
2.9678e-13
1.76849e-13
-8.76535e-13
1.04991e-12
-1.49305e-12
-3.58173e-12
-3.24009e-12
4.02946e-12
9.3456e-14
-4.02176e-12
-4.23844e-14
2.87358e-13
4.39542e-12
-2.59855e-13
-4.47877e-12
-2.98453e-13
3.84263e-12
3.67126e-13
-3.48164e-12
-4.73312e-15
-5.09e-12
-1.67706e-13
4.732e-12
3.91489e-13
0
1.49299e-13
7.02837e-13
-5.97851e-13
1.09314e-13
-1.99371e-13
1.29259e-13
-2.31191e-13
4.80515e-13
2.50578e-12
-1.64205e-12
1.04176e-12
-2.363e-12
-1.21764e-11
5.56035e-13
-5.33927e-13
-3.97071e-13
-6.80511e-13
-6.96068e-13
2.58903e-12
4.91028e-12
3.55765e-12
1.38849e-11
-2.92899e-11
3.83175e-12
1.48204e-13
7.40465e-13
4.32496e-13
-2.54475e-12
1.86589e-12
-2.9613e-12
8.44153e-12
5.22588e-12
-1.49836e-12
-1.99113e-12
6.66324e-12
2.52019e-12
-9.86123e-13
2.54343e-12
2.45023e-12
1.03756e-12
-1.6371e-12
5.34146e-12
2.90319e-13
-7.42248e-13
-8.92995e-13
6.26978e-12
6.70224e-12
-2.18113e-13
-8.99862e-12
6.0123e-12
-1.78915e-13
-6.32541e-12
7.63253e-12
2.50237e-14
-5.67434e-12
0
-3.70423e-12
3.19668e-14
3.63597e-12
1.46138e-13
3.46143e-14
1.46086e-13
5.37528e-13
1.27568e-14
-7.46162e-13
-3.12661e-12
-1.25882e-12
6.70056e-12
4.87525e-12
3.03009e-14
5.42197e-13
4.17763e-12
-4.47838e-13
-4.36971e-12
1.48867e-13
-2.97752e-12
1.31961e-11
-1.63458e-11
1.65955e-11
-9.90853e-12
6.3772e-12
-6.90931e-12
6.44341e-13
-1.16183e-14
-6.10259e-12
-1.48607e-13
-2.62375e-13
0
-4.06685e-12
5.91641e-12
4.5367e-12
3.92157e-12
-1.47298e-11
-1.03784e-11
6.09155e-12
-1.48355e-13
-6.91813e-12
1.53413e-12
1.00429e-11
-1.82901e-11
1.06695e-11
-8.85615e-13
2.85681e-12
3.70202e-13
1.18661e-12
-5.93236e-13
1.401e-12
2.25501e-11
2.88812e-12
-8.18738e-14
7.40741e-12
-3.03716e-13
-8.64064e-12
1.02488e-11
6.67278e-12
-2.22464e-12
-7.59846e-12
1.16601e-11
-2.36409e-12
2.90125e-13
-8.07168e-13
3.03387e-13
-1.5596e-11
-4.82807e-12
0
-4.45072e-13
-2.87842e-13
-4.32193e-12
-2.36059e-12
-1.12006e-12
9.00364e-12
-7.89977e-12
1.04465e-11
-9.25524e-12
1.63173e-12
-3.86352e-12
-1.67392e-12
-5.0997e-13
-1.70753e-12
1.78936e-11
8.60558e-13
-2.34934e-12
2.16982e-12
1.99859e-12
2.08036e-12
0
1.99252e-13
-9.50946e-12
9.61764e-12
-1.61566e-12
1.37563e-12
-9.21567e-12
9.27061e-12
1.04055e-13
-1.48883e-12
2.97691e-13
2.54619e-13
-3.67243e-14
3.65994e-12
-4.77165e-13
-1.19151e-13
4.56107e-13
-3.35487e-12
-3.59123e-13
0
-1.48471e-13
-3.01252e-12
-2.60057e-13
-2.78957e-13
-4.51917e-12
3.16329e-12
9.2995e-12
3.40914e-12
-3.67139e-13
5.93833e-13
4.00609e-12
-5.71055e-12
-4.67323e-12
5.23659e-12
6.91025e-13
-6.56623e-12
-2.98702e-12
6.55403e-12
-4.81263e-12
1.78026e-12
1.4817e-13
1.51409e-12
-1.94695e-12
-9.10426e-12
8.66579e-12
-6.76621e-12
6.85594e-12
7.45458e-13
2.39999e-12
-1.48147e-13
0
2.80302e-12
1.04699e-13
-6.22979e-12
6.49904e-12
7.39184e-12
-7.32407e-12
-1.89982e-13
-3.02375e-12
-3.99587e-12
-1.4798e-13
-2.95151e-13
-1.11341e-11
4.45442e-12
6.42752e-14
-1.75709e-12
1.41821e-13
-9.99433e-12
3.61486e-12
-2.95927e-13
4.88338e-12
7.26838e-12
-2.45843e-12
4.70945e-12
-4.52948e-12
-2.50272e-12
-7.66876e-14
9.44932e-12
-1.84426e-12
-4.29101e-12
4.73659e-12
-3.14335e-12
-6.27242e-12
-7.73968e-13
1.55737e-11
-2.8465e-12
-1.65859e-11
9.68382e-12
3.02606e-12
-1.48007e-13
-6.96699e-12
-5.69378e-12
-7.35176e-12
7.56724e-12
-4.60367e-13
-6.90134e-12
5.87017e-12
-3.33964e-13
-6.50436e-12
1.48235e-13
1.48374e-13
3.25327e-14
8.70524e-12
-1.84386e-13
-4.33772e-12
-1.55208e-12
-3.00069e-13
-5.34769e-12
5.27054e-12
5.93541e-12
4.45336e-12
1.5965e-12
-1.13545e-13
6.99439e-12
1.05126e-13
-4.05965e-12
-1.03593e-12
-4.89358e-12
2.5674e-12
6.38392e-12
-7.41011e-13
-1.16948e-12
-3.00298e-12
1.78083e-13
2.63688e-12
-2.23355e-14
9.77254e-14
4.47855e-13
7.24754e-13
-1.48196e-13
-1.4812e-13
1.14651e-13
-1.559e-14
8.79701e-14
4.88321e-14
-4.21354e-14
-3.5563e-14
-5.80997e-14
-3.46819e-14
-1.48112e-13
-3.25614e-12
-3.39309e-12
2.79221e-13
-2.18616e-13
4.76452e-12
-3.44647e-14
-8.15223e-12
2.27084e-14
3.53747e-12
0
7.39615e-12
3.7977e-12
-6.70677e-12
-4.96183e-12
2.61861e-12
5.1275e-12
1.01713e-13
2.53108e-13
-9.41767e-14
-2.95839e-13
-5.17639e-12
-7.18499e-14
5.41927e-12
4.91814e-13
-2.36257e-13
-6.45566e-13
-3.60838e-13
-4.84865e-12
6.9e-13
4.43701e-12
4.4369e-13
-4.32937e-12
-6.27418e-13
4.74731e-12
-3.63609e-14
-3.32633e-12
1.44419e-13
3.13316e-12
-8.68004e-14
0
-1.47925e-13
-5.72441e-12
-1.62537e-13
5.15546e-12
-1.23828e-14
3.87024e-12
4.90543e-15
-3.34343e-12
-2.2841e-13
0
-3.55233e-12
-3.87122e-12
1.06737e-13
6.44435e-14
-4.31184e-14
-5.31074e-12
1.4228e-14
5.28806e-12
2.10823e-13
1.48019e-13
0
2.88473e-14
4.18077e-12
-2.1695e-13
-4.30027e-12
5.74252e-12
2.41922e-13
-5.53928e-12
1.9935e-13
1.48122e-13
0
-4.53928e-13
-2.02171e-14
3.32292e-13
-3.92087e-14
6.66765e-13
4.92232e-14
-5.48045e-13
1.83889e-14
0
1.48052e-13
3.42187e-12
3.23509e-13
-3.46343e-12
2.04837e-13
-8.5193e-14
-3.81995e-12
-6.82011e-13
3.59681e-12
1.48051e-13
0
-6.31002e-13
3.15677e-12
5.63607e-13
-3.09441e-12
3.5254e-12
-3.37286e-13
-3.51606e-12
-4.00292e-14
1.48001e-13
3.55057e-12
3.46271e-12
1.47607e-13
2.21527e-13
-3.01891e-13
-1.32705e-13
-3.25985e-12
-3.36403e-12
3.3678e-12
3.40262e-12
3.54945e-12
3.55591e-12
-4.50035e-12
-3.40463e-12
1.35255e-12
2.25721e-13
-1.50332e-12
3.22885e-12
4.86673e-12
1.47898e-13
-4.43627e-12
-4.67496e-12
3.53758e-12
8.90553e-12
6.34716e-12
-5.34976e-12
-6.94476e-12
6.01565e-13
1.91057e-12
7.3943e-13
1.47875e-13
-2.45385e-14
-3.62246e-14
1.68116e-13
5.88457e-13
0
5.11255e-13
-2.85263e-13
-8.7098e-13
-1.47888e-13
-4.73256e-12
-3.73668e-12
4.7009e-12
3.66189e-12
-4.88314e-12
-4.94157e-12
5.31329e-12
9.69495e-13
-1.36211e-13
3.69761e-12
1.47939e-13
1.11585e-13
-1.41779e-14
4.25037e-13
-1.26276e-13
-6.37056e-13
-1.26213e-13
1.53061e-13
3.68238e-12
3.84667e-12
-4.73593e-12
-4.5549e-12
4.70703e-12
9.2136e-12
6.60919e-13
-5.07448e-12
-6.38023e-13
1.88366e-13
-5.20208e-14
0
1.48043e-13
-8.28235e-13
-2.95295e-13
1.09428e-12
-3.79482e-12
-3.52439e-13
-8.80895e-13
6.19745e-12
4.49698e-12
-5.62593e-12
-3.69925e-12
-3.62084e-12
5.17132e-13
-4.35978e-13
-4.70612e-13
5.68372e-13
-3.45677e-13
-2.2272e-13
3.1135e-13
-1.47972e-13
-1.47943e-13
5.1044e-12
5.49209e-12
-4.86876e-13
-4.83578e-12
2.08443e-13
4.1393e-12
3.67067e-12
-1.12485e-13
-3.40275e-12
-1.4791e-13
3.80852e-12
5.15251e-13
-3.27796e-12
-1.2226e-13
3.52345e-12
8.08187e-12
1.48422e-13
-4.84194e-12
-1.47914e-13
8.87305e-13
1.17557e-12
1.44022e-13
-4.98103e-12
-5.26684e-12
4.85095e-12
5.50924e-12
-3.85901e-14
4.57238e-13
5.9157e-13
4.58405e-12
4.25752e-12
-3.86245e-13
-3.95166e-12
1.55916e-13
4.33237e-12
-3.83057e-12
3.33838e-12
7.21669e-12
1.47885e-13
4.58403e-12
1.23955e-13
-4.56591e-12
2.51322e-14
1.06641e-13
-1.12642e-13
-2.33262e-13
1.79613e-13
3.37121e-12
3.40137e-12
0
3.34624e-12
-1.0395e-14
-4.26979e-12
1.50949e-13
-8.4705e-14
-3.72248e-14
5.15898e-12
-2.58667e-13
-4.43686e-12
-1.47907e-13
2.04518e-13
-9.37749e-14
-4.66855e-12
-1.13571e-12
4.80699e-12
3.70341e-13
-4.1586e-13
5.92904e-13
2.95836e-13
-1.47939e-13
-1.80239e-13
-5.65008e-14
2.81701e-13
-2.42233e-14
-8.4291e-14
1.16426e-15
-3.73159e-12
-2.94779e-13
3.69869e-12
2.95928e-13
-5.50371e-14
-3.86369e-13
-7.23966e-14
1.59585e-13
2.83285e-12
-6.90683e-15
-2.80041e-12
2.14659e-13
0
-2.73679e-12
-3.45361e-12
-6.3015e-13
1.00919e-12
-2.94428e-13
-9.08041e-13
2.11293e-13
-6.16031e-14
-8.47421e-14
-3.6957e-13
-7.38528e-14
-1.81912e-14
-3.02937e-13
3.76144e-12
-3.32732e-12
-4.26357e-12
3.38565e-12
4.64468e-13
2.36566e-13
2.2176e-13
-5.17546e-13
-9.48551e-14
-2.60446e-12
-1.6644e-13
-1.1903e-12
-3.64068e-12
4.40828e-12
3.66508e-12
1.97741e-13
2.21788e-13
-7.38254e-14