/*--------------------------------*- C++ -*----------------------------------*\
  =========                 |
  \\      /  F ield         | OpenFOAM: The Open Source CFD Toolbox
   \\    /   O peration     | Website:  https://openfoam.org
    \\  /    A nd           | Version:  10
     \\/     M anipulation  |
\*---------------------------------------------------------------------------*/
FoamFile
{
    format      ascii;
    class       volScalarField;
    location    "0.6";
    object      gradTy;
}
// * * * * * * * * * * * * * * * * * * * * * * * * * * * * * * * * * * * * * //

dimensions      [0 -1 0 1 0 0 0];

internalField   nonuniform List<scalar> 
46825
(
-2.98172e-13
0
0
1.33845e-11
1.03996e-12
-9.80535e-12
4.46156e-13
-9.53201e-12
1.49078e-13
7.45498e-13
1.11652e-11
1.18533e-14
1.45204e-11
2.44978e-11
1.22269e-13
-9.77704e-12
7.32036e-13
3.79763e-12
4.512e-13
7.74353e-13
6.63382e-13
-1.8223e-13
4.95653e-13
-1.24916e-11
-1.43288e-12
-2.05671e-13
1.74917e-13
2.9833e-11
-2.06028e-13
-5.85833e-13
-2.25641e-11
-3.38221e-13
-1.41771e-11
-1.12385e-11
1.33593e-14
2.15419e-13
-2.78375e-14
1.55735e-11
-4.84493e-13
3.15537e-13
1.10928e-11
-4.81572e-14
1.06376e-11
1.26935e-11
3.9431e-14
1.29894e-11
-6.12338e-15
-1.56467e-11
-4.09473e-14
-2.41753e-13
1.17139e-11
1.04005e-11
7.09981e-12
1.10942e-11
-6.28783e-13
1.01627e-12
1.40032e-13
-1.49174e-11
-1.08153e-13
-1.05111e-13
-1.07865e-11
-4.56961e-14
-1.1181e-11
9.32435e-12
1.50349e-13
-1.33125e-11
4.50166e-14
-1.14781e-11
1.11633e-13
2.84099e-13
-6.28292e-13
-9.93374e-12
-1.76188e-11
-1.10838e-11
4.17208e-13
-7.91219e-13
2.28808e-14
3.55939e-13
6.82269e-14
-3.83379e-13
-1.46552e-13
3.56492e-13
1.1526e-13
-1.02668e-11
2.53838e-14
-3.34605e-14
-4.04918e-13
1.1202e-11
4.474e-14
2.02029e-14
0
-1.49096e-13
1.01292e-11
-7.43695e-13
0
0
2.9749e-13
-1.04278e-12
0
-2.98252e-13
0
1.49346e-13
0
-1.37297e-11
1.01448e-11
0
-7.4618e-13
-1.03044e-11
0
-1.05943e-11
6.99918e-15
-5.69856e-15
7.33273e-12
4.63618e-12
-3.70209e-12
-3.70216e-12
-2.61727e-13
-2.054e-11
-1.70891e-13
-1.11493e-11
3.11807e-14
-3.78832e-13
-2.84923e-11
1.87e-11
-1.58024e-11
-1.04413e-12
-9.43289e-13
7.89806e-12
1.05266e-13
-1.44286e-13
-2.10824e-13
1.64679e-13
1.31587e-12
-6.67902e-13
2.74277e-12
2.24128e-12
3.003e-13
-5.33984e-13
9.97747e-13
8.04263e-14
-7.61812e-14
9.53266e-14
2.66361e-11
-2.15691e-13
2.51855e-11
2.4824e-11
6.10485e-13
2.90927e-13
-1.22868e-13
3.52862e-13
-1.65343e-14
1.02897e-11
-7.42099e-14
1.16264e-13
-2.57405e-11
-2.55073e-11
3.73832e-11
3.23969e-13
-1.05148e-12
-3.70002e-14
3.37674e-13
-3.70088e-13
-3.09901e-13
-6.82798e-13
-4.28076e-13
-2.38508e-13
-3.78632e-11
2.26891e-11
-1.79899e-11
1.97463e-13
-5.24886e-12
-1.02185e-11
-2.29541e-11
-4.24274e-12
-2.41416e-11
-9.34168e-13
-9.17776e-14
-2.16691e-11
1.09853e-13
4.4845e-13
3.0193e-14
5.17091e-13
-6.73589e-13
8.22704e-13
6.95547e-12
3.62735e-12
-7.8533e-13
-6.66135e-12
1.83115e-11
-1.22012e-11
5.07349e-12
4.48054e-13
-4.47996e-13
1.49228e-13
4.47528e-13
-1.08901e-11
4.47715e-13
1.19477e-11
0
-1.19383e-11
-3.05785e-11
-1.49274e-13
-1.90912e-11
-1.19217e-12
1.49049e-11
1.19237e-12
-3.15913e-11
5.22034e-12
1.49293e-13
2.98382e-13
-1.24294e-11
4.10833e-13
-1.86604e-11
-2.18102e-11
-9.97089e-12
-3.67872e-12
-2.31514e-11
-3.87349e-13
-2.06332e-13
2.47442e-13
2.93191e-11
2.29886e-13
-2.64889e-11
1.08552e-10
1.75615e-10
1.36851e-10
1.75543e-10
-1.50423e-11
4.48129e-13
1.40659e-11
-3.66675e-12
1.03367e-13
5.15048e-11
-1.52175e-07
-2.03273e-07
-2.08484e-07
-1.78021e-07
-4.08466e-09
-4.49415e-13
-1.79667e-11
-1.39475e-11
-9.16074e-14
-5.37394e-11
-1.22187e-08
2.76168e-08
2.9362e-08
2.18845e-08
-7.69114e-10
-4.80972e-13
-1.43014e-11
-1.15307e-13
2.4902e-11
5.96184e-11
3.63358e-09
-6.58225e-09
-6.87116e-09
-5.47152e-09
2.24869e-10
1.97824e-12
1.79933e-11
1.68915e-13
-5.51167e-11
-2.45286e-11
5.03744e-08
-7.79115e-08
-8.09635e-08
-6.4547e-08
2.60795e-09
-2.32922e-12
1.05913e-11
-2.33327e-13
6.55062e-11
1.13535e-13
2.52712e-09
1.53599e-08
1.57815e-08
1.43586e-08
5.27278e-12
9.23132e-13
6.71742e-13
5.83028e-14
-3.44655e-11
-6.21127e-12
2.26357e-11
6.35717e-13
-1.94084e-11
5.50175e-13
2.04368e-12
-6.91671e-13
-1.0287e-11
-1.49171e-13
0
0
-8.78897e-12
-4.47015e-12
1.6689e-11
3.2775e-12
1.49113e-13
-4.62713e-12
-4.47561e-13
-2.1726e-11
1.70914e-11
-5.9072e-13
-5.72323e-12
-5.42132e-12
-1.52372e-11
-1.10038e-11
-7.97453e-12
2.52712e-12
-1.48854e-13
3.04283e-14
4.03017e-11
-1.35705e-11
9.23317e-09
8.0247e-09
7.97119e-09
8.14865e-09
5.6175e-09
-1.18616e-12
-1.29145e-11
2.41803e-11
-2.36756e-11
-2.89418e-09
4.08402e-05
4.22175e-05
4.2479e-05
4.19481e-05
4.21277e-05
5.75208e-09
-1.52543e-13
2.30534e-13
-2.90422e-11
-1.66851e-07
-0.808904
-1.24312
-1.24946
-1.23381
0.140666
1.37832e-08
1.71229e-12
-1.44259e-11
-4.73912e-11
-1.70267e-09
-0.00515008
-0.0174885
-0.0182253
-0.0166114
-0.00832553
5.79539e-10
1.14768e-11
-8.98472e-13
2.69036e-11
4.06032e-09
0.000466735
0.00114196
0.00112234
0.00111848
-0.00931556
-9.18944e-11
1.13217e-11
1.13596e-11
2.14641e-11
7.94699e-09
0.0278742
0.0504105
0.0509999
0.0505201
-0.0108165
-2.30628e-09
-1.21171e-11
5.74607e-13
3.75496e-11
4.16749e-07
-0.0140597
0.83706
0.841131
0.827777
-0.0351446
-2.11531e-08
-1.40699e-13
-2.24006e-13
4.48543e-13
9.1113e-08
2.00206e-06
1.77527e-06
1.75385e-06
1.80915e-06
9.7996e-07
3.45479e-11
1.25117e-12
-1.48808e-13
-1.94629e-11
9.29884e-12
-2.93317e-12
6.44452e-12
4.83347e-12
-4.40004e-13
1.43189e-11
3.41791e-12
4.46502e-13
-2.97237e-13
5.19395e-12
-7.20325e-12
-4.19736e-11
-4.78636e-11
-2.57358e-11
-3.6e-11
8.81732e-12
-2.24122e-11
0
3.33611e-12
1.77909e-13
-5.03839e-10
-1.41283e-07
-2.10175e-07
-1.99914e-07
-2.25221e-07
7.40735e-09
-1.60841e-11
-1.12644e-11
4.25768e-13
3.29949e-11
-1.77238e-06
0.0887789
-0.862966
-0.865255
-0.861562
0.0178255
1.22657e-08
-1.15182e-11
-3.34435e-12
1.13915e-09
0.0196962
4.82809e-06
1.13462e-11
-1.0875e-11
6.02207e-10
0.000519172
9.07972e-07
2.69398e-11
-7.05897e-15
-9.60973e-11
8.74462e-05
-9.80689e-08
-3.90483e-13
1.0935e-11
-1.44693e-09
-0.000860206
-2.89564e-06
-1.62371e-11
-1.0633e-11
7.86395e-11
0.000882143
1.54586e-06
-1.166e-11
-1.0525e-12
-3.78874e-14
5.9985e-07
0.000500733
0.000650987
0.000652665
0.000645388
-4.06958e-05
2.94164e-10
1.04823e-11
9.36305e-12
8.90069e-13
-1.51309e-11
1.94466e-11
3.46915e-11
2.42843e-11
1.9447e-11
7.19865e-12
8.90275e-12
2.17029e-11
1.35285e-11
1.45594e-11
-1.22128e-11
-1.27711e-11
-2.38185e-11
-1.41447e-11
-1.17484e-11
3.52932e-12
3.26854e-12
-1.4871e-13
-1.3761e-13
1.41124e-11
-5.20236e-10
-6.61118e-08
-2.25672e-07
-2.09904e-07
-2.41321e-07
7.23923e-09
-7.32033e-13
-2.05399e-13
-1.40361e-11
6.23554e-12
-1.85237e-06
-0.728471
-0.901331
-0.903827
-0.898689
0.0188984
2.0898e-08
-1.25019e-11
9.05185e-14
1.17114e-09
0.0244749
1.03629e-05
1.55864e-11
3.8716e-13
8.72106e-10
0.000670239
1.04007e-06
2.51234e-11
-1.19452e-11
-7.55974e-11
0.000136723
-1.30689e-07
-2.5545e-11
2.21043e-14
-2.04795e-09
-0.00119032
-3.86451e-06
-2.25304e-11
-7.82659e-12
1.46283e-10
0.000979162
1.74081e-06
1.04591e-11
4.81347e-13
-3.56756e-13
6.19631e-07
0.000514616
0.000719725
0.000722228
0.00070851
-4.31804e-05
3.53826e-10
2.1374e-11
1.9327e-11
8.31602e-12
-1.86707e-11
1.49366e-11
2.88613e-11
3.117e-11
1.40664e-11
-2.42576e-11
-1.411e-11
1.10036e-11
2.63286e-11
2.1857e-11
-2.22354e-11
-1.40848e-11
-1.81962e-11
-1.35735e-11
2.46722e-12
0
1.45726e-11
-1.48796e-13
1.03212e-11
3.78855e-11
-5.49629e-10
-5.66755e-08
-2.08545e-07
-1.98389e-07
-2.31407e-07
7.24739e-09
1.26412e-11
-3.29272e-13
-1.67405e-12
8.03211e-12
-1.86469e-06
-0.729825
-0.903185
-0.905645
-0.900242
0.0189377
2.13401e-08
-1.46866e-13
1.8044e-13
1.00867e-09
0.0245972
1.03749e-05
7.75743e-13
-1.33559e-11
8.48176e-10
0.000671104
9.78742e-07
-1.27324e-13
-6.14845e-13
-1.35869e-10
4.62941e-05
-1.72734e-07
-3.6945e-14
-8.0761e-13
-1.95965e-09
-0.00128215
-3.99062e-06
7.46752e-13
4.64117e-13
1.06861e-10
0.000982234
1.7414e-06
-2.09878e-14
3.21e-13
-2.38677e-13
6.21248e-07
0.000515993
0.000722453
0.00072502
0.000710915
-4.34272e-05
3.62035e-10
-6.26577e-13
-2.97522e-13
-1.4863e-13
1.92756e-11
1.42204e-11
9.38412e-12
2.12227e-11
1.30593e-11
6.91565e-12
-3.71632e-12
2.97578e-13
2.97648e-13
-2.32078e-11
5.0095e-12
-1.46749e-11
-2.00874e-11
-3.03445e-11
-1.74267e-11
1.70827e-11
-1.68119e-11
1.48866e-13
-1.39299e-11
-2.23905e-11
4.57594e-11
-5.57499e-08
-2.094e-07
-1.97072e-07
-2.30837e-07
7.09575e-09
-1.71393e-11
1.82588e-13
-1.55022e-13
-6.78451e-13
-1.84245e-06
-0.729819
-0.903256
-0.90575
-0.900369
0.0189659
2.12226e-08
-2.24298e-14
3.33798e-12
1.04224e-09
0.0245626
1.03683e-05
3.21884e-14
-4.2338e-13
8.73438e-10
0.000671057
9.6196e-07
-5.1713e-14
1.07014e-11
-1.31822e-10
4.63099e-05
-2.22062e-07
-7.36657e-14
-2.17924e-13
-1.98691e-09
-0.00128214
-5.47218e-06
-2.44614e-13
-1.03584e-13
1.36783e-10
0.000988012
8.45237e-07
-1.43877e-15
-2.35481e-13
2.71159e-13
6.20059e-07
0.00051617
0.00072277
0.000725321
0.000711205
-4.34265e-05
2.99127e-10
1.51539e-13
1.48836e-13
-1.02612e-11
-3.97511e-12
6.24353e-12
6.6458e-12
2.47052e-11
1.88759e-11
8.24496e-12
4.31322e-12
-1.48862e-13
-1.42925e-11
2.53e-12
-1.47421e-13
-3.20005e-11
-4.32742e-11
-1.80897e-11
-3.78024e-11
-3.97864e-12
1.48838e-13
0
-2.63485e-11
-4.10897e-13
3.04811e-11
-6.14359e-08
-2.18026e-07
-2.07889e-07
-2.39454e-07
7.30353e-09
-9.24117e-13
5.32564e-13
1.0968e-11
-1.13363e-12
-1.83737e-06
-0.729533
-0.90266
-0.905097
-0.899747
0.0189253
2.13172e-08
3.29749e-13
1.19973e-11
1.16899e-09
0.0245535
1.02871e-05
2.82656e-13
3.62549e-13
8.45289e-10
0.000670633
9.37295e-07
-1.10218e-11
-3.8018e-14
-1.05242e-10
4.63555e-05
-2.14772e-07
-1.8184e-11
-1.13576e-11
-2.00879e-09
-0.00128143
-4.36471e-06
1.10959e-11
5.61427e-14
1.34608e-10
0.000982461
3.69924e-06
1.83253e-11
-2.35036e-15
2.33159e-11
6.20542e-07
0.000515876
0.000721031
0.000723507
0.000709791
-4.32362e-05
1.34837e-11
-1.2095e-13
1.48893e-13
-2.82659e-12
2.50439e-11
1.35196e-11
2.28622e-11
3.357e-11
1.57002e-11
3.2411e-12
2.00865e-11
0
0
7.44302e-13
-8.26123e-12
-8.74598e-13
-1.05973e-11
0
7.28606e-13
-3.83462e-12
3.5732e-12
1.4896e-13
2.1506e-14
1.10269e-13
2.6528e-11
-4.21067e-09
-1.93068e-08
-6.53572e-09
-4.50147e-08
5.60787e-09
4.07022e-13
-3.01534e-13
1.06736e-11
2.78983e-11
-1.82318e-06
-0.717957
-0.87676
-0.878656
-0.874612
0.0181389
1.89384e-08
-5.5753e-13
3.54484e-13
4.48555e-11
0.0208561
7.31629e-06
1.08563e-13
-1.06887e-11
3.6976e-11
0.000523723
5.39803e-07
3.93256e-13
-1.36025e-11
6.46187e-12
4.4811e-05
-9.49062e-08
2.6734e-13
1.9501e-13
-3.29078e-10
-0.000907596
-2.16011e-06
-3.61191e-13
1.28193e-11
9.1526e-11
0.000939994
1.35592e-06
-9.73678e-14
-2.04025e-13
1.10646e-12
6.11449e-07
0.000437683
0.000502062
0.000502642
0.000503322
-3.87527e-05
3.39353e-10
1.1075e-13
-1.4893e-13
2.97625e-13
7.51956e-12
-1.89406e-11
-4.20886e-12
-1.45135e-12
-4.80805e-12
-2.1675e-11
-2.9768e-13
0
2.97885e-12
1.74177e-11
1.47498e-13
3.49778e-12
-4.3549e-12
3.62903e-12
-2.92918e-11
0
1.93559e-12
1.48968e-13
-1.11743e-11
2.14e-11
2.42781e-11
2.60351e-10
2.44972e-10
2.51196e-10
2.25885e-10
-3.69812e-11
-3.01098e-12
2.94197e-13
-1.34768e-11
-2.08361e-12
-8.20213e-08
-0.000136064
-0.000140487
-0.000140685
-0.000140359
-0.000125033
2.60802e-10
1.03167e-11
-9.1068e-15
2.70006e-11
1.03999e-06
-4.33849e-09
8.02518e-14
-3.45508e-13
-2.94796e-11
3.58851e-08
-3.17947e-10
-1.09878e-11
-1.13932e-11
2.09072e-11
-5.30307e-09
4.08578e-11
-4.01854e-13
4.43479e-13
-2.03606e-11
-5.22369e-08
1.13325e-09
1.44867e-13
1.13908e-11
-3.53484e-12
-4.91548e-06
2.2652e-09
7.55273e-13
-3.15902e-13
8.38925e-12
1.36941e-08
-4.52371e-07
-4.74109e-07
-4.75465e-07
-4.69056e-07
-1.32093e-07
7.52787e-12
5.60191e-13
1.48953e-13
-1.33946e-12
1.17962e-12
0
2.9028e-13
-1.36432e-11
-1.45704e-13
5.8982e-12
0
1.48964e-13
-4.46831e-13
0
0
-8.72492e-13
-1.86707e-11
-2.43155e-11
3.49005e-12
-1.17917e-11
6.10387e-12
1.19166e-12
1.56957e-14
2.98138e-13
-2.31278e-11
-2.92748e-13
-2.19721e-11
-3.22516e-12
-1.96021e-11
-1.64164e-11
1.46333e-11
1.01777e-12
6.48372e-13
2.97817e-13
0
6.10962e-13
-5.11721e-13
2.26124e-13
2.9243e-11
-1.63914e-11
6.02678e-13
-1.26539e-11
1.48385e-11
2.48826e-11
5.49251e-11
-3.47909e-13
-6.93226e-13
-1.77791e-13
-4.57005e-11
-1.12023e-13
-2.62492e-13
1.24268e-11
-1.45318e-11
2.05232e-11
-6.05394e-13
-2.95083e-11
-1.19046e-11
1.62452e-11
2.92563e-13
-4.91446e-13
2.87476e-11
-1.11115e-11
-3.44869e-13
-2.55963e-11
-9.13649e-11
8.77553e-13
1.28348e-11
-1.59938e-11
2.5683e-11
-1.01337e-11
2.17587e-13
1.11168e-11
1.46546e-12
1.44981e-11
-7.31297e-14
3.22378e-11
1.11859e-11
1.48945e-13
4.61332e-12
-1.47362e-13
0
3.47319e-12
4.34144e-12
3.48939e-12
-7.36742e-13
-2.44084e-11
0
0
4.12286e-11
-3.68296e-12
-3.63178e-12
1.35869e-11
-1.27198e-11
-5.52056e-12
8.84017e-13
-6.40066e-12
2.97885e-13
-4.9117e-14
2.77297e-11
4.32877e-13
2.92689e-13
1.49348e-11
-1.34819e-11
0
2.54215e-11
1.28434e-11
5.62356e-14
-6.84649e-14
5.95729e-12
-5.38767e-11
-5.2882e-11
-9.89384e-12
1.89061e-11
1.53089e-11
-3.62949e-11
3.10117e-12
-2.98044e-13
-9.57478e-14
-2.92689e-13
0
9.05717e-12
-2.70807e-13
1.22089e-13
0
4.89516e-11
2.26394e-13
1.12064e-13
-6.7328e-13
0
-5.19916e-11
8.10473e-14
1.1334e-11
9.7605e-14
-5.55649e-12
-5.888e-13
2.94648e-11
-1.6022e-11
1.16057e-11
5.88468e-12
7.56181e-13
-2.97954e-11
-1.15174e-11
1.14058e-11
-4.18142e-12
0
5.73589e-12
2.1968e-13
8.07171e-12
8.09544e-12
-1.442e-11
0
1.58199e-11
2.97867e-13
-2.97608e-12
-1.63507e-11
0
1.31517e-11
9.10508e-12
-4.35757e-13
-1.03104e-12
-3.72029e-12
5.95761e-13
5.95711e-13
3.86963e-12
0
4.212e-12
1.27164e-11
-3.61262e-12
-4.35738e-13
-1.10485e-11
-1.92001e-11
1.45953e-11
8.98754e-13
6.26811e-13
-4.26482e-13
-4.44955e-13
1.25944e-11
-2.93136e-13
-5.84976e-13
-1.5222e-11
-2.0312e-11
1.09272e-13
-3.00012e-13
0
-4.95986e-11
-7.78686e-13
1.30572e-12
1.18199e-12
1.17784e-12
3.09665e-11
-3.01977e-13
-4.26919e-12
-1.18676e-11
-2.22964e-14
-2.32477e-12
1.70335e-13
-2.16561e-13
7.04828e-14
-2.31369e-11
-2.94955e-12
3.79719e-13
-1.04067e-11
1.16945e-11
2.25704e-11
-4.78702e-11
4.63153e-14
1.19354e-11
-3.23955e-13
5.84978e-13
1.76675e-12
2.015e-12
-1.11762e-13
1.26305e-11
-5.88444e-13
-6.51345e-11
-1.46409e-12
-1.15309e-11
9.73241e-14
1.7623e-11
8.18602e-13
2.1075e-12
-4.39619e-13
4.84549e-12
-1.1455e-11
-7.02853e-12
-2.12181e-11
2.87134e-13
-1.26589e-11
-8.33256e-12
2.65098e-12
5.80911e-13
-5.05714e-12
-3.75672e-12
-1.35059e-11
1.34024e-11
2.23206e-12
4.46789e-13
2.82973e-12
4.46497e-13
1.47319e-13
4.93973e-12
-1.96606e-11
4.33689e-13
-1.35116e-11
3.38836e-12
2.08368e-12
-1.23618e-11
-1.27642e-11
2.80355e-12
-4.19483e-13
1.60924e-13
-1.93024e-11
8.4094e-12
1.34527e-11
-8.56528e-12
1.70878e-13
-1.30235e-11
1.84252e-12
-2.08499e-12
4.38068e-11
6.6968e-13
1.13596e-11
-1.77289e-12
-3.29777e-11
2.99596e-11
3.01956e-13
-2.38762e-14
1.56348e-11
-7.52932e-13
5.81142e-13
2.35058e-13
-1.42428e-13
1.44976e-11
1.45641e-13
2.35958e-12
-2.24533e-11
-1.9671e-13
-5.12865e-13
9.11412e-13
-1.77288e-11
2.17924e-11
3.79172e-13
-1.57875e-11
-1.16978e-12
0
-3.66993e-13
9.9782e-12
-1.1609e-11
4.03048e-11
1.3144e-12
-2.28887e-11
-1.07699e-11
-5.27029e-13
-3.9269e-11
-2.5776e-11
-7.19439e-12
6.22659e-12
1.33582e-11
-2.31963e-11
1.77156e-11
2.39505e-11
-9.99172e-12
1.14677e-11
-6.54719e-12
0
-1.74317e-11
-1.44546e-13
2.58739e-11
1.45267e-13
1.4729e-13
2.08327e-12
1.07233e-11
1.20642e-11
8.03756e-12
1.47385e-13
2.76397e-12
7.09634e-12
4.34465e-12
2.03656e-12
3.24242e-12
0
-2.14488e-11
-1.08515e-11
-8.04821e-12
1.72206e-12
-1.05785e-12
-7.83951e-12
2.93072e-13
1.8621e-12
-6.6482e-12
-8.06155e-12
-1.10528e-11
-1.13059e-11
-2.08419e-12
-3.51429e-12
-9.18876e-13
3.17723e-13
0
5.88424e-13
-1.54057e-11
0
1.01695e-11
1.1314e-11
9.11151e-13
-4.87887e-11
-4.57179e-13
-1.3224e-13
1.36889e-13
6.76015e-13
-4.59723e-11
-4.88317e-14
-3.7199e-13
1.09678e-11
0
0
-1.92963e-13
1.51883e-13
-4.19068e-13
-2.89707e-11
-4.82465e-11
4.15536e-14
2.49446e-13
4.94246e-13
2.79395e-11
9.67278e-13
1.57021e-12
-3.84556e-13
4.23074e-14
1.05912e-12
-1.15273e-12
-8.56626e-12
5.12062e-12
2.49187e-12
7.50475e-12
7.8986e-12
-1.79523e-13
-8.42668e-14
-1.08732e-11
3.15476e-11
4.42063e-12
-3.19995e-12
-2.08518e-11
1.44804e-12
-3.34531e-12
4.42058e-12
2.2174e-11
2.97897e-13
0
0
9.44141e-12
1.35591e-11
-3.77618e-12
-6.82595e-12
5.83115e-12
2.95014e-13
4.76463e-12
1.48985e-13
1.92359e-13
-9.29157e-13
4.31359e-13
1.80346e-11
-1.26559e-12
-3.8608e-12
6.61047e-13
-3.27684e-13
2.25739e-11
1.50603e-13
1.58409e-14
8.92868e-13
-1.3221e-12
2.78062e-11
2.92753e-11
2.36659e-12
-2.0723e-11
-1.80525e-11
-2.34818e-11
-4.63744e-14
9.1811e-14
-7.92964e-13
4.88917e-11
-5.29945e-14
-1.79782e-13
-2.88801e-13
2.96829e-11
-6.39307e-13
-7.40342e-13
1.01078e-13
-8.22548e-15
-2.9586e-11
0
-2.15178e-11
2.09891e-14
-3.26571e-13
-4.18674e-14
-4.02909e-11
2.19821e-11
-1.29257e-13
-5.30119e-14
2.84611e-13
-2.92666e-12
1.01479e-11
-1.03553e-11
9.75346e-14
5.31953e-12
6.03348e-13
-2.26263e-12
1.49604e-11
1.8235e-11
-2.1877e-11
-2.35227e-11
-9.80016e-12
-6.16058e-13
-1.4898e-13
-1.042e-12
1.4749e-13
0
-1.45213e-13
1.45212e-13
2.39038e-11
1.74019e-11
0
1.0131e-11
1.08745e-11
0
4.72145e-12
5.82853e-13
0
0
-4.22439e-12
-5.16273e-12
3.57414e-12
1.02812e-11
-8.91403e-12
2.32988e-13
2.79989e-11
-3.37052e-11
-2.73643e-11
3.17709e-11
2.63085e-11
5.01865e-14
-9.40664e-12
3.38188e-13
-1.05976e-11
0
-8.10223e-11
4.46631e-11
5.36242e-11
3.87806e-12
1.44338e-11
-2.65454e-11
-1.34595e-12
-2.09428e-11
9.47403e-12
7.80204e-13
-2.0119e-13
1.76097e-12
-1.7781e-13
-9.91514e-16
-2.92675e-12
-1.13488e-11
-4.64257e-13
1.09355e-11
-4.03703e-14
5.88307e-13
1.31913e-12
-3.40107e-11
-1.17245e-11
-3.81224e-14
1.48784e-12
-5.37918e-11
4.53886e-11
-1.98291e-13
-1.33961e-13
4.46852e-13
-1.05827e-12
-1.1572e-11
1.14399e-11
4.43477e-13
-3.90184e-15
-3.29981e-11
1.38587e-12
1.62889e-11
6.71878e-12
-2.2027e-13
8.34792e-12
6.51359e-13
1.53344e-13
2.98001e-13
-2.99259e-11
3.09699e-12
4.0782e-12
0
0
5.38871e-12
-5.45614e-12
-2.48634e-11
2.98001e-13
0
4.16892e-12
4.1291e-12
4.94545e-12
2.89397e-13
-5.78735e-13
4.07083e-12
1.03179e-12
-8.93382e-13
-1.48993e-11
-5.05673e-14
2.98173e-13
2.52544e-13
-2.70205e-11
-8.78508e-13
-2.3154e-11
-3.04192e-11
3.16344e-11
-2.98717e-13
-1.17048e-11
1.79592e-13
1.99563e-11
-6.83869e-14
3.6216e-11
7.41844e-11
5.54377e-11
3.88032e-11
-3.02265e-12
3.64139e-12
1.36031e-12
-5.82803e-13
-1.79475e-11
-6.66065e-11
-1.81032e-11
1.12962e-11
-1.2651e-13
-1.17123e-12
0
1.04059e-13
2.21345e-12
6.36735e-13
2.28598e-11
0
-4.79533e-13
-3.7011e-12
3.39584e-13
-2.27952e-11
-5.87926e-13
-1.02465e-14
1.16569e-11
-1.28318e-11
0
5.52892e-11
-3.31439e-13
1.37931e-11
1.3865e-11
2.94932e-11
-2.08776e-11
1.52488e-12
-1.68993e-11
-2.13277e-11
1.85805e-11
2.45116e-11
2.54848e-13
1.32427e-11
2.65212e-11
1.05691e-11
3.38926e-12
1.16289e-11
1.4466e-13
2.02524e-12
4.07005e-12
-1.42933e-11
1.63745e-12
3.427e-12
-5.95845e-13
2.53114e-12
-1.68085e-11
0
-1.44589e-13
-1.44574e-13
-5.08566e-12
-2.94722e-13
-4.76466e-12
0
2.11448e-12
1.08241e-11
-1.67407e-11
2.51694e-11
-3.08738e-13
-3.55753e-13
1.43826e-13
-2.59037e-11
3.66117e-11
-9.1087e-13
7.63681e-13
-5.27209e-11
1.22764e-12
-1.15462e-11
-7.01812e-11
1.77271e-11
-1.23658e-11
3.87465e-11
-2.59684e-11
1.40612e-11
-2.35364e-12
2.82804e-11
-3.47854e-12
1.12738e-12
1.39355e-12
-1.13496e-13
-4.41794e-13
0
-6.61476e-13
-1.42496e-11
2.2728e-14
-5.23034e-14
1.1227e-11
5.34683e-13
-5.56864e-12
-1.14079e-13
-3.23452e-13
0
-2.53019e-13
-1.52677e-13
-1.07924e-13
5.88444e-13
-1.59781e-12
-8.92023e-13
5.33987e-12
2.12278e-14
-2.04344e-11
-3.20099e-11
-8.21238e-12
-1.02554e-12
-3.22924e-12
-9.11792e-12
-3.66035e-13
-4.8775e-13
4.12129e-13
0
-3.87038e-12
1.42909e-11
-2.00489e-11
-4.0474e-12
-4.04731e-12
-3.92249e-12
-2.23934e-11
-1.53324e-11
0
0
-2.82977e-12
-5.16209e-12
1.77444e-11
-1.37434e-11
1.34527e-11
3.27093e-11
-6.33894e-12
5.95772e-13
1.19246e-12
3.17456e-13
1.12867e-12
3.1407e-11
1.77904e-11
-3.33258e-11
2.28735e-11
3.27426e-11
1.77791e-13
-1.90153e-11
-2.29301e-11
3.02359e-12
-5.95749e-13
-2.84198e-11
4.43846e-13
2.53628e-11
0
0
1.41134e-11
1.96293e-11
-1.34584e-11
-5.52816e-13
-1.52555e-13
1.56548e-11
-2.35289e-11
1.11549e-11
-2.68417e-12
-3.48866e-13
3.00815e-11
2.33329e-11
4.44924e-13
4.33918e-13
1.23387e-12
0
-2.0742e-11
5.38173e-14
-3.36157e-13
-1.38626e-12
0
2.13301e-11
-1.10948e-11
-1.95214e-11
0
-4.9962e-13
-2.92777e-13
-2.46176e-13
1.66173e-13
-1.45076e-13
7.19115e-12
-9.30257e-12
-4.39568e-13
-1.94517e-11
-4.64678e-11
9.51703e-12
-7.45603e-13
1.10407e-11
1.93773e-11
-7.59441e-12
-1.47386e-13
1.45353e-13
-1.44632e-13
3.3265e-12
4.79659e-12
4.42142e-12
4.31829e-12
1.49064e-13
0
-7.45265e-13
7.23609e-12
2.33241e-11
1.81354e-11
-1.4507e-13
-8.30599e-12
1.41725e-11
3.32415e-11
1.2977e-11
-1.47147e-11
2.49095e-11
3.4911e-14
1.76619e-11
4.43545e-11
1.65207e-12
-2.88398e-11
1.42877e-11
2.44333e-11
1.30863e-11
1.01438e-11
-2.59072e-11
-3.58591e-13
-1.00288e-12
-4.69741e-11
-9.18257e-13
3.60726e-11
1.58398e-12
-2.77678e-11
-1.06458e-11
2.90253e-11
-1.39813e-13
1.73928e-12
2.63195e-11
1.27065e-13
2.1357e-14
6.42048e-13
1.17918e-12
-3.00821e-13
1.09707e-11
-1.40258e-11
-5.90142e-14
1.05785e-10
-3.42906e-14
3.70033e-13
-2.14836e-11
-2.94245e-13
3.31117e-13
-2.16329e-13
-1.86138e-13
-2.76785e-14
5.88448e-13
2.10594e-12
-3.54271e-13
-3.74281e-13
-2.1977e-12
-2.57824e-11
-1.98306e-11
2.12756e-11
3.65854e-13
-1.39278e-12
-2.91481e-13
-2.56063e-12
5.34789e-13
-1.46378e-12
-1.28278e-11
2.53372e-11
8.85617e-12
2.37493e-11
0
-1.59559e-11
1.69015e-11
3.2472e-12
-6.70687e-12
-1.6409e-12
0
2.98549e-13
-2.07518e-12
-3.96442e-12
5.85517e-13
0
1.46796e-13
-1.76363e-11
-1.85113e-11
-1.01509e-11
-1.95727e-11
-9.30725e-12
-7.11429e-12
6.84024e-12
1.8408e-13
5.38032e-13
3.02958e-11
-4.8222e-11
-4.28516e-11
6.34246e-13
-8.22854e-13
-5.96248e-13
7.69526e-11
-1.62446e-12
2.0866e-11
1.45265e-12
-3.88727e-11
6.29199e-11
2.80759e-11
1.07492e-11
9.07202e-12
-2.40304e-11
0
-2.55449e-11
-1.38037e-13
-7.49833e-14
-3.77747e-13
3.37264e-12
2.57649e-11
2.0325e-13
-2.20784e-12
2.91917e-11
-5.82629e-13
3.93394e-13
-2.50151e-14
-1.60298e-11
-6.62262e-12
4.64463e-13
-2.20593e-11
1.08957e-13
2.31961e-12
2.65136e-12
-9.29149e-13
2.34229e-11
5.77534e-14
1.59385e-11
-7.6902e-13
3.52361e-12
-8.70479e-12
-2.65898e-11
-6.07259e-12
3.34836e-12
-8.7655e-13
-2.11782e-11
-1.24014e-13
1.01509e-11
0
0
-8.95359e-12
5.85444e-13
1.46363e-13
-1.46785e-13
-1.37811e-11
-9.55356e-12
0
-1.16385e-11
-9.25794e-12
-1.3396e-12
2.96481e-13
1.48086e-13
-1.48081e-13
-3.85401e-12
-5.95344e-13
0
1.49223e-13
-1.332e-13
7.46327e-12
-1.34028e-12
2.10613e-11
4.5789e-14
9.18879e-13
-1.10332e-14
-6.21524e-14
-2.87626e-11
8.14836e-14
1.2024e-11
-2.18111e-11
1.62267e-12
-3.97342e-11
7.09465e-11
-3.16075e-11
3.06655e-11
1.02951e-11
3.82038e-11
-1.49964e-13
6.9601e-13
2.24572e-11
2.26458e-12
1.11509e-12
-2.64286e-13
-3.9916e-13
-3.42787e-11
2.67113e-13
-2.22311e-11
8.10925e-14
-6.51675e-13
3.35293e-11
4.50548e-13
1.39763e-12
6.04905e-14
-1.45503e-11
3.82828e-13
-3.29839e-12
-1.40985e-12
-2.14196e-13
2.23262e-13
-8.89476e-13
-5.3349e-11
7.38953e-13
1.06733e-11
1.1808e-11
1.12131e-12
2.2295e-11
-9.5364e-12
1.21217e-11
-1.91948e-13
-1.46799e-12
-7.87138e-12
1.92876e-13
-1.18506e-13
-2.686e-12
-2.52305e-11
4.31522e-12
-2.51958e-12
0
-1.48084e-13
-3.55738e-12
7.44113e-12
0
-1.05973e-11
1.07192e-11
8.93367e-13
-5.9451e-13
-1.03854e-12
-4.00424e-12
4.44918e-13
5.04416e-12
-3.29932e-11
-2.97762e-13
-2.97756e-13
1.08476e-11
4.21434e-13
-3.59193e-12
-1.54854e-12
7.21959e-12
2.47854e-11
-2.24734e-11
1.16953e-12
-2.12791e-11
-3.43055e-13
1.01788e-11
-2.97143e-13
-2.41962e-11
1.12463e-11
5.56962e-12
-3.32057e-11
1.12093e-11
-2.69867e-11
-6.83546e-12
4.20603e-13
1.07291e-11
0
3.23959e-11
-7.35267e-12
-1.0369e-12
-1.32519e-11
1.62602e-12
1.81123e-12
4.87744e-11
1.89691e-13
-1.07269e-11
1.18708e-12
1.49711e-11
1.32842e-12
1.34609e-12
-2.88554e-11
9.27196e-13
6.61802e-12
-1.95674e-11
1.04617e-13
-1.04619e-11
-8.90667e-13
1.1963e-12
3.17586e-11
-1.02572e-12
5.47563e-12
-1.87869e-12
-2.33843e-11
-7.35654e-13
-2.51693e-13
1.52364e-13
-2.96549e-13
1.11687e-12
-3.22439e-11
1.13795e-12
2.04119e-11
4.13652e-13
4.70449e-11
-3.39476e-11
-4.05301e-13
1.90199e-11
-1.34249e-12
-3.00666e-11
1.7092e-11
-1.83892e-11
1.1074e-12
-7.8943e-13
9.46931e-11
3.42812e-11
9.69313e-14
-4.42763e-13
1.01393e-11
-3.20353e-13
8.35171e-13
2.74045e-11
-3.45379e-11
2.30905e-11
-2.5342e-11
7.56001e-15
-6.78191e-13
-1.89067e-11
-5.06125e-12
5.49722e-12
1.48327e-13
1.66082e-11
-1.48296e-13
1.52797e-11
5.94417e-13
0
-5.95625e-13
5.93864e-13
1.21673e-11
-1.48185e-13
-1.15463e-11
-1.74627e-11
0
-2.97529e-11
-1.11134e-11
2.37404e-12
-5.34476e-12
4.84263e-13
-6.01925e-14
4.71004e-12
-4.0569e-13
6.30831e-12
-3.72601e-12
-8.40902e-12
-6.42589e-12
-1.25885e-11
1.04329e-13
3.22248e-14
-1.2116e-11
8.54951e-12
1.53959e-11
2.34854e-11
9.93094e-13
1.98803e-11
-3.6288e-13
-1.85095e-11
4.95787e-12
1.51131e-13
9.88107e-12
-2.34945e-12
8.80464e-13
-4.73017e-13
-1.33694e-12
7.981e-13
1.5297e-13
4.94167e-12
1.39477e-14
-6.28771e-14
1.08494e-11
-7.34971e-12
-2.95359e-13
1.61524e-11
-2.84328e-12
-9.04629e-12
1.88849e-13
-7.67996e-12
-1.11749e-11
1.23265e-11
2.23434e-12
1.17642e-12
0
2.87805e-12
1.33362e-13
2.82143e-13
2.69457e-11
-1.74912e-11
-9.09529e-15
-1.77541e-13
-7.15024e-13
-2.02757e-11
2.94651e-13
-1.55009e-11
-4.44962e-12
-3.68614e-14
-2.62912e-11
7.59392e-12
4.49142e-13
-1.22118e-11
-1.24092e-11
2.07943e-11
-2.02208e-11
-2.10232e-11
7.6066e-12
-4.79746e-13
2.04021e-12
1.64583e-11
4.67432e-14
1.22364e-13
-9.97753e-12
-2.40228e-11
2.99814e-12
1.80761e-11
2.2504e-12
1.84409e-13
3.58228e-12
-1.53047e-13
1.05666e-11
-1.48459e-13
2.96745e-13
8.1519e-12
0
1.25766e-11
4.43896e-13
-7.4002e-13
-1.22975e-11
0
0
-9.92965e-12
1.39242e-11
1.03614e-12
-1.47941e-13
0
-9.17102e-12
-1.18353e-12
9.91712e-12
0
0
-1.01275e-11
8.92051e-13
-1.16782e-11
-3.49488e-13
8.30587e-14
-8.92144e-12
-6.34885e-15
2.3846e-11
1.39006e-11
2.35232e-12
1.0321e-11
3.1554e-12
-3.10165e-13
-4.91513e-13
-3.43486e-12
1.81727e-13
1.03763e-12
1.22467e-11
1.16137e-13
1.65105e-13
1.08132e-11
-5.64317e-13
2.87851e-11
1.19191e-13
-9.6874e-14
-6.98305e-14
-1.77334e-13
-6.88479e-13
-1.49723e-11
-4.96096e-12
1.19052e-13
-3.03521e-11
-1.38891e-13
1.39747e-13
3.63174e-12
1.14444e-14
7.60959e-14
-1.33047e-11
9.89314e-14
-4.09776e-13
1.49643e-11
4.64498e-13
-1.72319e-11
1.06534e-11
-1.44143e-13
-1.89655e-13
6.65012e-13
-2.47974e-11
8.79805e-13
2.94474e-12
4.05266e-13
1.32767e-11
1.63967e-13
1.02702e-11
-3.75713e-13
-1.18465e-11
8.27088e-14
1.07869e-12
1.42187e-13
-9.93091e-12
-1.48584e-11
-3.9449e-13
2.44482e-13
-1.0588e-11
1.0301e-13
2.43663e-13
1.19959e-11
1.14322e-11
-5.01998e-13
3.20545e-13
-1.20108e-11
-1.42106e-11
-3.69831e-13
-1.02799e-11
9.05227e-14
1.12536e-11
-9.30669e-14
-1.1453e-13
-5.09729e-14
9.85105e-12
-1.14111e-11
-1.42193e-11
0
2.95826e-13
-2.95764e-13
-4.43633e-13
-1.24238e-11
1.47991e-13
1.48111e-13
1.482e-13
1.71745e-11
1.59854e-11
-4.43868e-13
1.31645e-11
-7.39513e-12
-5.916e-13
0
2.95897e-13
-1.11006e-11
9.91945e-12
4.13161e-13
4.87168e-14
-5.65023e-14
1.2992e-11
-7.50655e-12
-9.13914e-14
-2.54453e-14
-1.18156e-13
-1.14144e-11
1.08743e-11
-1.7039e-11
-6.59162e-12
1.06878e-12
-4.17138e-14
-3.72776e-13
4.45382e-13
4.89255e-14
-5.9562e-13
-6.42324e-13
-9.82675e-12
-6.0524e-13
1.18567e-13
1.6815e-14
-4.26668e-14
8.56719e-14
-9.95373e-12
-2.12926e-14
1.44624e-13
7.71734e-14
-1.61361e-11
-5.97316e-13
-6.75062e-12
-1.19799e-11
3.86099e-14
6.61987e-13
-1.04828e-11
-7.51756e-14
-4.88163e-13
-1.33593e-13
-1.55087e-13
1.05181e-11
-1.37948e-13
-8.00409e-13
-3.64691e-13
2.76372e-13
9.88799e-12
1.2363e-11
1.06004e-11
-1.16465e-11
5.03948e-12
6.30029e-13
-2.80685e-12
1.08687e-11
-1.03502e-13
-5.51712e-14
1.0736e-11
-7.93746e-15
6.59902e-13
1.41303e-13
3.20039e-13
-1.06692e-11
2.53126e-13
5.37734e-13
4.31447e-14
-1.17039e-11
5.23838e-14
-1.19033e-11
-1.07435e-11
1.1295e-11
-1.76623e-13
1.7048e-12
1.01108e-11
-1.00195e-11
3.57253e-15
8.88804e-13
1.43993e-11
1.08349e-11
-2.13606e-13
-2.82533e-14
-2.26493e-13
1.33241e-12
1.0064e-11
-1.02074e-11
5.9153e-13
1.22725e-11
1.43422e-11
1.04991e-11
1.47923e-13
-1.47988e-13
0
4.4393e-13
0
-7.1004e-12
2.95805e-13
0
1.12398e-11
-7.39494e-13
-1.47918e-11
1.47947e-13
0
1.228e-11
5.55231e-13
-7.28928e-12
-6.69148e-13
-3.32655e-13
1.1162e-11
-3.35816e-13
-2.8202e-11
-4.45224e-14
1.76646e-13
2.8129e-13
1.96068e-13
1.45956e-11
2.35238e-13
9.38946e-13
-4.73679e-14
-5.12597e-15
-5.02456e-13
5.61772e-14
2.54634e-14
-1.20999e-11
-1.01444e-12
-3.14097e-13
5.82591e-13
6.27071e-13
1.27234e-11
-1.42534e-13
1.29778e-11
-1.52473e-11
-1.3997e-11
-1.04401e-11
2.44375e-13
-2.52611e-11
-3.18823e-13
-9.35203e-13
3.43368e-13
4.30849e-13
-4.55448e-14
-3.88223e-13
2.12472e-14
1.24017e-11
3.67536e-13
-1.39194e-11
7.04214e-16
-3.42932e-13
-1.25177e-11
-9.93853e-14
1.73274e-13
8.85149e-13
1.366e-11
1.02549e-11
-1.17005e-13
-4.27236e-12
-1.30924e-11
-4.00592e-13
-6.60974e-13
-1.01359e-13
2.13981e-13
-4.14197e-13
1.09383e-13
-6.99731e-13
-1.83951e-13
1.38082e-11
3.63362e-13
-5.24107e-14
-1.85091e-13
5.03814e-14
-1.35992e-11
1.45149e-11
0
-1.81518e-13
1.14084e-13
1.48214e-11
1.30682e-11
1.86409e-13
1.34444e-14
6.62667e-14
-6.96957e-14
5.91572e-13
-1.87969e-13
-1.13936e-11
-1.4794e-13
1.47902e-13
1.47874e-13
1.4786e-13
-4.43571e-13
2.95733e-13
1.36059e-11
0
-2.95913e-13
-5.91721e-13
1.15375e-11
0
-2.07047e-12
0
0
1.47884e-13
-1.47893e-13
-1.47911e-13
0
-5.91666e-13
2.23337e-11
1.47891e-13
0
1.43447e-11
5.91526e-13
1.30133e-11
-1.3309e-12
1.47892e-13
1.34593e-11
0
5.9156e-13
-1.12392e-11
2.07045e-12
1.47898e-13
7.39469e-13
1.47879e-13
-1.27168e-11
9.90761e-12
1.47886e-13
0
-1.07954e-11
0
0
-1.49406e-11
-4.43762e-13
-1.30146e-11
7.39339e-13
1.47861e-13
-1.36038e-11
0
-2.95763e-13
1.12401e-11
-3.84607e-12
-1.47952e-13
-4.43834e-13
1.77489e-12
2.45465e-11
-9.90627e-12
0
2.95759e-13
-7.39385e-13
-1.50849e-11
-1.4792e-12
-1.22793e-11
1.47937e-13
1.36068e-11
0
-1.47849e-13
1.47854e-13
1.47881e-13
-1.13862e-11
-1.16822e-11
1.03524e-12
0
-1.47898e-13
-1.47871e-12
-1.22715e-11
0
0
0
-1.62666e-12
1.52302e-11
1.47864e-12
1.36037e-11
-1.47861e-13
-2.95693e-13
0
1.5968e-11
1.22732e-11
-4.43717e-13