/*--------------------------------*- C++ -*----------------------------------*\
  =========                 |
  \\      /  F ield         | OpenFOAM: The Open Source CFD Toolbox
   \\    /   O peration     | Website:  https://openfoam.org
    \\  /    A nd           | Version:  10
     \\/     M anipulation  |
\*---------------------------------------------------------------------------*/
FoamFile
{
    format      ascii;
    class       volScalarField;
    location    "0.4";
    object      gradTy;
}
// * * * * * * * * * * * * * * * * * * * * * * * * * * * * * * * * * * * * * //

dimensions      [0 -1 0 1 0 0 0];

internalField   nonuniform List<scalar> 
46825
(
-2.98172e-13
0
0
8.92297e-12
1.03996e-12
-6.5369e-12
4.46156e-13
-4.91494e-12
1.49078e-13
7.45498e-13
7.43891e-12
1.18533e-14
9.76575e-12
1.63282e-11
1.54567e-13
-6.38114e-12
7.32036e-13
3.78718e-12
4.512e-13
7.74353e-13
5.16585e-13
-1.8223e-13
5.01711e-13
-8.36282e-12
-1.43288e-12
-2.05671e-13
1.74917e-13
1.99204e-11
-2.06028e-13
-5.85833e-13
-1.48322e-11
-3.38221e-13
-9.50065e-12
-7.37949e-12
4.28611e-14
2.3017e-13
-2.78375e-14
1.03337e-11
-4.84493e-13
3.15537e-13
7.22878e-12
-4.81572e-14
6.84714e-12
8.56075e-12
3.39354e-14
8.60333e-12
-6.12338e-15
-1.02509e-11
-4.09473e-14
-2.41753e-13
7.84878e-12
7.00407e-12
6.08364e-12
7.38818e-12
-6.24386e-13
9.97581e-13
8.88073e-14
-9.82527e-12
-1.08153e-13
-1.05111e-13
-6.91931e-12
7.86667e-14
-7.23157e-12
6.26313e-12
1.31416e-13
-8.89337e-12
1.63185e-14
-7.54112e-12
1.11633e-13
2.84099e-13
-6.28292e-13
-6.66343e-12
-1.33357e-11
-7.30216e-12
4.58701e-13
-7.91219e-13
2.28808e-14
3.73118e-13
8.21626e-14
-3.83379e-13
-1.46552e-13
3.56492e-13
-2.75811e-14
-7.15712e-12
2.53838e-14
-6.57671e-14
-4.04918e-13
7.19536e-12
4.474e-14
2.02029e-14
0
-1.49096e-13
6.85212e-12
-7.43695e-13
0
0
2.9749e-13
-1.04278e-12
0
-2.98252e-13
0
1.49346e-13
0
-9.10338e-12
6.56426e-12
0
-7.4618e-13
-6.8696e-12
0
-7.01314e-12
1.50191e-14
-5.69856e-15
4.97578e-12
2.87892e-12
-2.43067e-12
-2.5429e-12
-2.61727e-13
-1.38056e-11
-1.70891e-13
-7.5653e-12
3.11807e-14
-3.80338e-13
-1.92215e-11
1.24721e-11
-1.10696e-11
-1.16887e-12
-9.43289e-13
5.47038e-12
1.07275e-13
-1.44286e-13
-2.0587e-13
1.71743e-13
1.01934e-12
-5.26087e-13
2.74277e-12
2.24128e-12
3.003e-13
-5.33984e-13
9.92782e-13
8.58172e-14
-7.61812e-14
1.01881e-13
1.81082e-11
-2.15691e-13
1.65613e-11
1.62114e-11
6.10485e-13
-2.35949e-13
-1.22357e-13
3.49949e-13
-1.65343e-14
6.84389e-12
-3.60077e-13
9.69813e-14
-1.71491e-11
-1.69071e-11
2.4999e-11
3.23969e-13
-1.05148e-12
-3.70002e-14
3.37674e-13
-3.71531e-13
-3.09901e-13
-3.91471e-13
-4.28076e-13
-2.38508e-13
-2.52693e-11
1.49731e-11
-1.20144e-11
1.97463e-13
-5.24886e-12
-6.76485e-12
-1.52935e-11
-3.94791e-12
-1.59294e-11
-6.7773e-13
1.05544e-13
-1.39744e-11
1.10529e-13
4.49034e-13
3.0193e-14
5.17091e-13
-6.36167e-13
8.22704e-13
4.11345e-12
2.4307e-12
-7.8533e-13
-4.93988e-12
1.21816e-11
-8.16845e-12
5.07349e-12
4.48054e-13
-4.47996e-13
1.49228e-13
4.47528e-13
-7.30977e-12
4.47715e-13
8.21403e-12
0
-8.20761e-12
-2.02862e-11
-1.49274e-13
-1.23795e-11
-1.19217e-12
9.9863e-12
1.19237e-12
-2.13092e-11
3.28136e-12
1.49293e-13
2.98382e-13
-7.02382e-12
4.10833e-13
-1.23858e-11
-1.46324e-11
-6.41659e-12
-3.67872e-12
-1.53346e-11
-3.3018e-13
-2.06332e-13
2.47442e-13
1.91821e-11
2.29886e-13
-1.75002e-11
3.14588e-11
4.21569e-11
1.96346e-11
4.0682e-11
-3.52185e-12
4.48129e-13
9.30219e-12
-3.36701e-12
1.03367e-13
3.42885e-11
-7.93817e-08
-1.11407e-07
-1.14395e-07
-9.78789e-08
-1.06603e-09
-4.49415e-13
-1.21582e-11
-9.32831e-12
-9.16074e-14
-3.55247e-11
-7.44983e-09
8.25164e-09
8.80071e-09
6.34485e-09
-1.73665e-10
-4.69155e-13
-9.38746e-12
-1.14252e-13
1.67983e-11
3.98027e-11
2.17898e-09
-1.96784e-09
-2.07426e-09
-1.59499e-09
4.74877e-11
1.97144e-12
1.20316e-11
1.71788e-13
-3.74295e-11
-1.47864e-11
2.96404e-08
-2.24873e-08
-2.34236e-08
-1.78433e-08
6.25544e-10
-2.06622e-12
7.16245e-12
-2.30851e-13
4.34061e-11
1.0644e-13
3.97409e-10
3.78727e-09
3.87969e-09
3.75343e-09
6.15001e-12
9.14324e-13
6.76092e-13
5.83028e-14
-2.25298e-11
-6.09394e-12
1.51046e-11
6.23014e-13
-1.42605e-11
5.71404e-13
2.11181e-12
-6.91671e-13
-6.85077e-12
-1.49171e-13
0
0
-5.80966e-12
-2.9801e-12
1.13247e-11
2.08568e-12
1.49113e-13
-3.13451e-12
-4.47561e-13
-1.45832e-11
1.15925e-11
-5.9072e-13
-3.22849e-12
-1.17218e-12
-7.91164e-12
-6.16214e-12
-5.021e-12
1.04058e-12
-1.48854e-13
-1.12755e-13
2.63421e-11
-1.06106e-11
4.93885e-09
4.58534e-09
4.55327e-09
4.6325e-09
2.96995e-09
-1.21863e-12
-8.75334e-12
1.70961e-11
-1.5981e-11
-1.35801e-09
1.66264e-05
1.71467e-05
1.72641e-05
1.70247e-05
1.7386e-05
3.06793e-09
1.37548e-13
2.09551e-13
-1.90114e-11
-6.99715e-08
-0.591583
-0.900889
-0.905363
-0.89434
0.091706
5.62614e-09
1.26517e-12
-1.04784e-11
-2.81573e-11
-7.0306e-10
-0.00344073
-0.011724
-0.0122187
-0.0111353
-0.00325704
1.6416e-10
7.51244e-12
-8.89317e-13
1.92145e-11
1.91872e-09
0.000310578
0.000765674
0.000752573
0.000749882
-0.00381927
-2.6179e-11
7.36801e-12
7.40859e-12
1.20395e-11
4.05432e-09
0.0185916
0.033779
0.0341759
0.0338498
-0.00466116
-7.60717e-10
-8.14355e-12
5.74607e-13
2.01799e-11
1.69996e-07
-0.00592537
0.594828
0.597734
0.58855
-0.0167188
-7.24431e-09
-1.4733e-13
-2.27199e-13
4.48543e-13
5.86586e-08
7.017e-07
6.00872e-07
5.90822e-07
6.17026e-07
2.19755e-07
2.41914e-11
1.24558e-12
-1.48808e-13
-1.30743e-11
6.19923e-12
-3.81312e-12
2.34346e-12
5.85875e-13
-1.76002e-12
9.44752e-12
2.22907e-12
4.46502e-13
-2.97237e-13
3.70997e-12
-5.14518e-12
-1.97523e-11
-2.11121e-11
-6.50624e-12
-1.61129e-11
5.87821e-12
-1.49909e-11
0
3.33726e-12
1.77909e-13
-1.87621e-10
-5.17362e-08
-7.31444e-08
-6.85039e-08
-8.00025e-08
-3.12833e-10
-1.10467e-11
-7.5528e-12
4.41835e-13
2.03272e-11
-1.08812e-06
0.0657474
-0.576335
-0.577865
-0.575396
0.0172374
5.87412e-09
-7.42565e-12
-3.40913e-12
2.07371e-10
0.0133727
1.82509e-06
7.54502e-12
-7.27855e-12
2.08874e-10
0.0003474
3.93408e-07
1.76504e-11
3.37278e-13
-3.34379e-11
5.81073e-05
-4.26066e-08
-3.60413e-13
7.08555e-12
-5.04343e-10
-0.000577004
-1.25283e-06
-1.09107e-11
-7.25328e-12
8.96673e-12
0.000574295
7.33507e-07
-7.86256e-12
-8.99527e-13
-4.45394e-14
3.67966e-07
0.000196554
0.000280971
0.000281678
0.000278769
-1.98039e-05
1.03787e-10
7.36828e-12
5.79618e-12
8.90069e-13
-1.01363e-11
5.95007e-12
1.51775e-11
5.92652e-12
4.7892e-12
6.17027e-12
5.93517e-12
1.47164e-11
9.06856e-12
9.80532e-12
-8.53424e-12
-1.01589e-12
-6.06289e-12
4.33002e-13
-5.80166e-13
2.35288e-12
1.93141e-12
-1.4871e-13
-2.71015e-13
9.35608e-12
-1.87879e-10
-9.81315e-09
-7.95093e-08
-7.2406e-08
-8.67112e-08
-6.46822e-10
-7.25056e-13
-2.05399e-13
-9.45449e-12
2.37545e-12
-1.1298e-06
-0.485773
-0.601909
-0.603577
-0.600143
0.0180659
7.745e-09
-8.09068e-12
2.77647e-14
1.37172e-10
0.0165677
3.90103e-06
1.0266e-11
3.67076e-13
3.10352e-10
0.000448677
4.64992e-07
1.68606e-11
-7.71954e-12
-1.07963e-11
9.10492e-05
-5.84328e-08
-1.72752e-11
1.15056e-13
-7.54702e-10
-0.000798265
-1.72427e-06
-1.50129e-11
-5.49709e-12
4.06061e-11
0.000650205
8.25757e-07
7.11776e-12
3.39977e-13
-5.90233e-14
3.78077e-07
0.000202393
0.000321656
0.000322786
0.000316147
-2.09377e-05
1.27928e-10
1.42434e-11
1.29343e-11
5.49452e-12
-1.22021e-11
2.90031e-12
9.95714e-12
1.12558e-11
2.17521e-12
-1.63188e-11
-9.35715e-12
7.13745e-12
1.74037e-11
1.472e-11
-1.47254e-11
-2.46846e-12
-2.31063e-12
8.66393e-13
7.5468e-12
0
9.81421e-12
-1.48796e-13
6.91732e-12
2.53812e-11
-1.94075e-10
-5.54532e-09
-7.18084e-08
-6.71891e-08
-8.22093e-08
-6.83649e-10
7.56925e-12
-3.29272e-13
-1.21587e-12
2.67737e-12
-1.1362e-06
-0.486677
-0.603148
-0.604792
-0.601181
0.0180993
7.93126e-09
-1.46866e-13
1.35223e-13
5.33272e-11
0.0166498
3.88536e-06
7.15514e-13
-8.60938e-12
2.94421e-10
0.000449356
4.37589e-07
-1.66029e-13
-5.59001e-13
-5.62332e-11
3.06929e-05
-7.72482e-08
2.28439e-14
-6.31796e-13
-6.85555e-10
-0.000859673
-1.78065e-06
8.28402e-13
4.57215e-13
1.3533e-11
0.000652676
8.26152e-07
-4.1113e-14
3.21e-13
-2.38677e-13
3.78982e-07
0.000202891
0.000322886
0.00032405
0.000317232
-2.10521e-05
1.32571e-10
-6.26818e-13
-2.97522e-13
0
1.32428e-11
2.90212e-12
-3.03179e-12
4.6199e-12
2.17655e-12
6.91565e-12
-2.5271e-12
2.97578e-13
2.97648e-13
-1.60669e-11
3.53612e-12
-3.34181e-12
-4.33541e-12
-1.05483e-11
-5.51846e-12
1.13394e-11
-1.11584e-11
1.48866e-13
-9.31726e-12
-1.52387e-11
1.90788e-11
-5.13244e-09
-7.21733e-08
-6.65951e-08
-8.19553e-08
-7.60905e-10
-1.14666e-11
1.82588e-13
-3.36503e-14
-3.62947e-13
-1.12633e-06
-0.486673
-0.603195
-0.604862
-0.601266
0.018117
7.85516e-09
-2.27174e-14
2.25917e-12
6.40253e-11
0.0166268
3.88244e-06
-6.04064e-14
-5.81062e-13
3.06149e-10
0.000449343
4.30085e-07
-9.4325e-14
7.14779e-12
-4.94981e-11
3.07041e-05
-9.92915e-08
-2.73777e-14
-3.97257e-15
-7.04995e-10
-0.000859684
-2.43204e-06
-8.05922e-14
-1.03584e-13
3.03306e-11
0.000656567
4.24613e-07
2.07182e-14
-2.35481e-13
8.67068e-13
3.78489e-07
0.000202963
0.000323029
0.000324184
0.000317361
-2.10522e-05
1.10823e-10
1.5183e-13
1.48836e-13
-6.24593e-12
-3.97511e-12
-1.88758e-12
-4.91211e-12
7.22374e-12
6.67917e-12
5.30033e-12
2.97463e-12
-1.48862e-13
-9.52836e-12
1.78588e-12
-1.47421e-13
-1.41093e-11
-1.89596e-11
-1.73661e-12
-1.81742e-11
-2.94714e-12
1.48838e-13
0
-1.75722e-11
-4.10897e-13
8.19785e-12
-7.69114e-09
-7.60545e-08
-7.14509e-08
-8.58303e-08
-6.25187e-10
-9.24117e-13
5.37795e-13
7.10632e-12
-1.12898e-12
-1.12386e-06
-0.486482
-0.602797
-0.604425
-0.60085
0.0180891
7.92506e-09
3.32051e-13
8.02358e-12
1.34004e-10
0.0166205
3.85374e-06
2.15364e-13
2.03426e-13
2.94387e-10
0.000449058
4.19056e-07
-7.29933e-12
-1.41331e-13
-3.46363e-11
3.0715e-05
-9.60217e-08
-1.2193e-11
-7.20658e-12
-7.23589e-10
-0.000859199
-1.94506e-06
7.60978e-12
5.61427e-14
2.99143e-11
0.000652805
1.72977e-06
1.21546e-11
1.71906e-15
1.52523e-11
3.78648e-07
0.000202987
0.000322244
0.000323364
0.000316732
-2.09666e-05
7.75877e-12
-1.16008e-13
1.48893e-13
-1.48768e-12
1.69415e-11
2.6167e-12
4.91972e-12
1.25887e-11
3.34357e-12
2.35716e-12
1.35398e-11
0
0
7.44302e-13
-5.60583e-12
-5.83066e-13
-7.54877e-12
2.90316e-13
0
-2.65473e-12
2.38213e-12
1.4896e-13
2.1506e-14
1.10269e-13
4.0239e-12
1.66982e-08
1.09296e-08
1.66793e-08
-6.70037e-10
-1.12552e-09
4.07022e-13
-2.91068e-13
7.02145e-12
1.84398e-11
-1.11609e-06
-0.478815
-0.585561
-0.586828
-0.584125
0.0175174
7.03295e-09
-5.32764e-13
5.25394e-13
-2.94639e-10
0.0141508
2.75777e-06
1.20088e-13
-7.19705e-12
-5.60509e-11
0.00035066
2.14455e-07
3.95559e-13
-9.39275e-12
1.5861e-11
2.97237e-05
-3.79139e-08
2.67199e-13
2.16646e-13
-1.34796e-11
-0.000608859
-8.61141e-07
-3.72861e-13
8.5414e-12
1.85425e-11
0.000615577
6.48342e-07
-8.93018e-14
-2.04025e-13
1.10646e-12
3.73917e-07
0.000166877
0.000195109
0.000195106
0.000197364
-1.89351e-05
1.26131e-10
1.1075e-13
-1.4893e-13
2.97625e-13
5.01304e-12
-1.22386e-11
-2.46727e-12
7.25674e-13
-3.35106e-12
-1.50398e-11
-2.9768e-13
0
2.0852e-12
1.11652e-11
1.47498e-13
2.47759e-12
-3.1936e-12
2.46774e-12
-1.96736e-11
0
1.93559e-12
1.48968e-13
-7.59685e-12
1.39475e-11
1.14774e-11
5.4301e-11
4.96092e-11
5.47742e-11
3.46611e-11
-3.1976e-11
-3.01098e-12
2.99139e-13
-8.77087e-12
-1.78595e-12
-2.61113e-08
-4.14106e-05
-4.2798e-05
-4.28556e-05
-4.27637e-05
-3.75096e-05
6.87432e-11
6.64771e-12
-1.82136e-14
2.02505e-11
3.24399e-07
-1.34215e-09
8.6228e-14
-3.45508e-13
-1.88886e-11
1.0922e-08
-9.77296e-11
-7.35922e-12
-7.63695e-12
1.384e-11
-1.6226e-09
1.11222e-11
-4.04406e-13
4.61981e-13
-1.44864e-11
-1.5893e-08
3.47554e-10
1.65359e-13
7.55587e-12
-2.9457e-12
-1.69119e-06
-8.24642e-10
7.35685e-13
-3.15902e-13
8.38925e-12
4.34046e-09
-1.38853e-07
-1.45539e-07
-1.45943e-07
-1.43995e-07
-3.76887e-09
7.52787e-12
5.60191e-13
1.48953e-13
-1.33946e-12
5.89808e-13
0
2.9028e-13
-1.11758e-11
-1.45704e-13
3.83383e-12
0
1.48964e-13
-4.46831e-13
0
0
-8.72492e-13
-1.27366e-11
-1.64998e-11
2.3267e-12
-7.95942e-12
4.1685e-12
1.19166e-12
1.56957e-14
2.98138e-13
-1.53838e-11
-2.92748e-13
-1.43551e-11
-2.34557e-12
-1.31656e-11
-1.11267e-11
9.8551e-12
1.01748e-12
6.48372e-13
0
6.11983e-13
6.10962e-13
-5.11721e-13
2.26124e-13
2.04338e-11
-9.77734e-12
6.02678e-13
-8.06656e-12
1.01862e-11
1.6686e-11
3.75244e-11
-2.48183e-13
-7.20916e-13
-3.18131e-13
-3.01741e-11
-1.12023e-13
-2.62492e-13
7.94914e-12
-9.75573e-12
1.37799e-11
-1.63979e-14
-1.95403e-11
-7.99713e-12
1.07313e-11
2.92563e-13
-4.91446e-13
1.88393e-11
-7.16571e-12
-6.59223e-14
-1.61816e-11
-6.08785e-11
8.77553e-13
8.74957e-12
-1.06346e-11
1.67238e-11
-6.86372e-12
2.17587e-13
8.04505e-12
1.46546e-12
9.6168e-12
-7.31297e-14
2.10902e-11
7.30651e-12
1.48945e-13
3.27397e-12
-1.47362e-13
0
2.31546e-12
2.89429e-12
2.03548e-12
-7.36742e-13
-1.66692e-11
0
0
2.73865e-11
-2.50441e-12
-2.32434e-12
8.67252e-12
-8.52806e-12
-3.77722e-12
8.84017e-13
-4.46558e-12
2.97885e-13
-4.88263e-14
1.63993e-11
4.32877e-13
2.92689e-13
9.95656e-12
-9.0856e-12
0
1.68985e-11
8.96053e-12
5.1731e-14
-6.84649e-14
5.95729e-12
-3.73464e-11
-3.60945e-11
-2.81001e-12
1.35888e-11
1.00097e-11
-2.47727e-11
3.10117e-12
-2.73879e-13
-9.57478e-14
-2.92689e-13
0
5.79659e-12
-2.70807e-13
1.22089e-13
0
3.24378e-11
2.26394e-13
1.12064e-13
-6.7328e-13
0
-3.42672e-11
7.80376e-14
7.57173e-12
9.7605e-14
-5.55649e-12
-5.888e-13
1.98609e-11
-1.0527e-11
7.77521e-12
5.88468e-12
5.8514e-13
-2.0023e-11
-7.94025e-12
7.68187e-12
-4.18142e-12
0
3.1956e-12
2.1968e-13
5.43006e-12
8.09544e-12
-1.32488e-11
0
1.04619e-11
1.48933e-13
-1.78565e-12
-1.09005e-11
0
8.23791e-12
6.21458e-12
-4.35757e-13
1.47291e-13
-2.38098e-12
5.95761e-13
5.95711e-13
2.38131e-12
0
3.05007e-12
9.10376e-12
-2.45658e-12
-4.35738e-13
-7.21834e-12
-1.26513e-11
9.68057e-12
8.98754e-13
6.26811e-13
-4.26482e-13
-4.44955e-13
8.49391e-12
-2.93136e-13
-5.84976e-13
-9.92611e-12
-1.40392e-11
2.66495e-13
-3.00012e-13
0
-3.24534e-11
-7.78686e-13
1.31206e-12
1.18199e-12
1.17784e-12
2.08844e-11
-3.01977e-13
-2.94374e-12
-7.8013e-12
-2.22964e-14
-1.74358e-12
1.70335e-13
-2.01953e-13
-7.33755e-14
-1.58151e-11
-2.94955e-12
8.66408e-14
-7.0786e-12
7.79303e-12
1.52423e-11
-3.13225e-11
4.63153e-14
8.19015e-12
-3.23955e-13
5.84978e-13
1.76675e-12
1.7642e-12
-1.2481e-14
8.34688e-12
-8.82665e-13
-4.38147e-11
-1.17127e-12
-7.84424e-12
2.42765e-13
1.28439e-11
8.18602e-13
1.81681e-12
-4.39619e-13
4.40499e-12
-7.80691e-12
-7.02853e-12
-1.4285e-11
2.86843e-13
-8.48892e-12
-5.95183e-12
8.83661e-13
5.80911e-13
-3.61224e-12
-2.7453e-12
-9.2944e-12
9.13133e-12
2.38086e-12
4.46789e-13
2.82973e-12
4.46497e-13
1.47319e-13
3.1963e-12
-1.32998e-11
4.33689e-13
-9.44356e-12
2.2098e-12
1.04184e-12
-8.19158e-12
-7.56136e-12
2.80355e-12
-4.19483e-13
1.60924e-13
-1.28599e-11
6.06517e-12
9.35838e-12
-6.21826e-12
1.70878e-13
-8.70798e-12
1.97255e-12
-2.08499e-12
2.91117e-11
6.6968e-13
1.13596e-11
-1.77289e-12
-2.17888e-11
2.07413e-11
3.01956e-13
-7.76697e-15
1.03859e-11
-7.52664e-13
5.81142e-13
7.15393e-13
-1.51223e-13
8.85049e-12
1.45936e-13
2.35958e-12
-1.54237e-11
-1.93886e-13
-3.78614e-13
9.11412e-13
-1.77288e-11
1.41606e-11
3.79172e-13
-1.02657e-11
-1.16978e-12
0
-3.66993e-13
6.78209e-12
-7.68206e-12
2.76544e-11
1.18386e-12
-1.48192e-11
-7.35995e-12
-5.24331e-13
-2.64269e-11
-1.74726e-11
-4.57825e-12
3.51619e-12
9.68837e-12
-1.56101e-11
1.20788e-11
1.55107e-11
-6.56335e-12
7.44655e-12
-5.05919e-12
0
-1.16211e-11
-1.44546e-13
1.73456e-11
1.45267e-13
1.4729e-13
2.08327e-12
7.14889e-12
8.19172e-12
5.65606e-12
1.47385e-13
1.74567e-12
4.77917e-12
2.89644e-12
2.03656e-12
2.21074e-12
-1.48847e-13
-1.41502e-11
-6.97763e-12
-5.36548e-12
1.74707e-12
-1.05828e-12
-5.4971e-12
2.93072e-13
1.8621e-12
-4.30049e-12
-5.37437e-12
-7.34279e-12
-7.49561e-12
-2.08419e-12
-3.51429e-12
-9.18876e-13
3.17723e-13
0
5.88424e-13
-1.06544e-11
0
6.78045e-12
7.53242e-12
9.11151e-13
-3.31066e-11
-4.57179e-13
-1.40194e-13
1.36889e-13
6.76015e-13
-2.888e-11
-3.38392e-13
-3.7199e-13
7.20264e-12
2.93069e-13
0
-1.90172e-13
1.59944e-13
-1.22453e-13
-1.87357e-11
-3.17721e-11
6.2615e-14
2.49446e-13
5.21016e-14
1.79401e-11
1.97955e-13
1.33708e-12
-3.45409e-13
3.37221e-13
1.05912e-12
-1.15273e-12
-6.17061e-12
2.77977e-12
1.90555e-12
4.88173e-12
5.04632e-12
-4.81332e-13
-8.42668e-14
-7.14949e-12
2.09821e-11
3.2418e-12
-2.03633e-12
-1.39012e-11
7.24021e-13
-2.18172e-12
3.09441e-12
1.42866e-11
2.97897e-13
0
0
6.19592e-12
9.18519e-12
-2.61428e-12
-4.06652e-12
3.93602e-12
2.95014e-13
3.27568e-12
1.48985e-13
1.92504e-13
-9.29157e-13
4.36591e-13
1.21699e-11
-1.26509e-12
-3.86021e-12
6.53598e-13
-3.27684e-13
1.48174e-11
1.5511e-13
1.6993e-14
8.92868e-13
-1.3221e-12
1.79255e-11
2.39594e-11
2.36659e-12
-1.42353e-11
-1.2035e-11
-1.56545e-11
-4.63744e-14
8.61173e-14
-7.92964e-13
3.20144e-11
2.17107e-13
-1.63839e-13
-2.89297e-13
1.99857e-11
-6.39307e-13
-7.39118e-13
9.07253e-14
-8.22548e-15
-1.98804e-11
0
-1.44299e-11
2.82218e-14
-3.26571e-13
-4.18674e-14
-2.67177e-11
1.49472e-11
-1.29257e-13
-4.32162e-14
2.82815e-13
-2.92666e-12
1.01091e-11
-6.9861e-12
9.75346e-14
5.31953e-12
6.03348e-13
-2.62689e-12
1.00964e-11
1.21813e-11
-1.49028e-11
-1.61444e-11
-9.80016e-12
-7.60502e-13
-1.4898e-13
-1.042e-12
1.4749e-13
0
-1.45213e-13
1.45212e-13
1.57415e-11
1.17979e-11
0
6.70434e-12
7.44828e-12
0
3.246e-12
5.82853e-13
0
0
-2.91337e-12
-3.54016e-12
2.08491e-12
7.00315e-12
-5.93305e-12
2.32988e-13
1.84683e-11
-2.25524e-11
-1.85468e-11
2.11806e-11
1.75044e-11
5.01865e-14
-6.11966e-12
3.41968e-13
-7.09523e-12
-2.97779e-13
-5.34043e-11
3.01148e-11
3.60474e-11
7.60696e-12
1.02673e-11
-1.72186e-11
-1.34647e-12
-1.41448e-11
6.41526e-12
7.80204e-13
-2.33016e-13
1.82478e-12
-1.91324e-13
1.34563e-15
-2.92675e-12
-1.13866e-11
-4.65984e-13
7.46415e-12
-4.03703e-14
5.88307e-13
1.29e-12
-2.24899e-11
-7.6616e-12
-3.81224e-14
1.48784e-12
-3.47469e-11
3.42037e-11
-1.77238e-13
-1.53839e-13
4.50663e-13
-1.05827e-12
-1.14301e-11
7.32437e-12
4.43407e-13
-3.90184e-15
-2.19931e-11
1.38587e-12
1.08347e-11
4.2823e-12
-2.2027e-13
5.56528e-12
6.51359e-13
1.53053e-13
2.98001e-13
-1.99506e-11
2.06466e-12
2.76735e-12
0
0
3.78666e-12
-3.53912e-12
-1.65259e-11
2.98001e-13
0
2.82891e-12
2.80189e-12
3.2e-12
2.89397e-13
-5.78735e-13
2.61696e-12
1.03179e-12
-8.93382e-13
-9.83352e-12
-4.99861e-14
2.98173e-13
2.53126e-13
-1.82326e-11
-8.78508e-13
-1.55337e-11
-2.04745e-11
2.04531e-11
-2.98717e-13
-7.84184e-12
1.90529e-13
1.37013e-11
-6.83869e-14
2.4055e-11
5.0045e-11
3.65653e-11
2.4693e-11
-2.15904e-12
3.64139e-12
7.2736e-13
-5.82803e-13
-1.20909e-11
-4.40182e-11
-1.22377e-11
7.61751e-12
-1.34986e-13
-1.17123e-12
0
1.04969e-13
1.49351e-12
6.19782e-13
1.52398e-11
0
-4.75525e-13
-3.99539e-12
3.39584e-13
-1.54834e-11
-1.17585e-12
1.70775e-14
8.18716e-12
-8.55759e-12
0
4.08485e-11
-2.17149e-13
1.04468e-11
9.40147e-12
1.99339e-11
-1.42364e-11
1.52488e-12
-1.13394e-11
-1.46582e-11
1.24599e-11
1.63167e-11
5.56577e-13
8.77051e-12
1.75815e-11
6.99647e-12
2.35774e-12
7.84952e-12
1.4466e-13
1.15728e-12
2.76182e-12
-9.57797e-12
1.63745e-12
2.235e-12
-5.95845e-13
1.63779e-12
-1.09108e-11
0
-1.44589e-13
-1.44574e-13
-3.342e-12
-2.94722e-13
-2.97791e-12
0
2.11956e-12
7.54551e-12
-1.11009e-11
1.72599e-11
-3.08738e-13
-3.55753e-13
1.43826e-13
-1.67823e-11
2.4064e-11
-9.0491e-13
7.29152e-13
-3.51473e-11
1.22764e-12
-8.18812e-12
-4.65909e-11
1.12272e-11
-1.05992e-11
2.72234e-11
-1.72116e-11
9.50553e-12
-2.35364e-12
1.89095e-11
-3.47854e-12
9.72972e-13
1.28615e-12
-1.13496e-13
-4.41794e-13
0
-6.62209e-13
-9.63284e-12
2.04693e-14
-5.2518e-14
1.1227e-11
5.3755e-13
-5.55593e-12
7.37823e-15
-3.23455e-13
0
-2.22246e-13
-1.83893e-13
-1.07924e-13
5.88444e-13
-1.44928e-12
-7.4564e-13
5.33987e-12
2.22456e-14
-1.35637e-11
-2.18935e-11
-5.81407e-12
-1.02554e-12
-1.83479e-12
-8.2426e-12
-3.66035e-13
-7.89195e-13
4.12129e-13
0
-2.67949e-12
9.28172e-12
-1.33659e-11
-2.74645e-12
-3.90276e-12
-2.17916e-12
-1.48798e-11
-1.01223e-11
0
0
-1.48935e-12
-3.39223e-12
1.17811e-11
-8.96941e-12
9.11311e-12
2.16608e-11
-4.12768e-12
5.95772e-13
1.0434e-12
3.1702e-13
1.12718e-12
2.09438e-11
1.19311e-11
-2.21969e-11
1.52509e-11
2.16282e-11
1.77791e-13
-1.30402e-11
-1.51798e-11
3.00919e-12
-2.97875e-13
-1.9212e-11
4.43846e-13
1.71051e-11
0
0
9.50492e-12
1.35895e-11
-9.22674e-12
-5.52816e-13
-1.52555e-13
1.68144e-11
-1.56795e-11
7.52112e-12
-2.68417e-12
-3.48866e-13
2.65425e-11
1.54214e-11
4.421e-13
4.36743e-13
1.23416e-12
0
-1.34018e-11
5.38173e-14
-3.36157e-13
-1.38626e-12
0
1.43221e-11
-7.46053e-12
-1.2887e-11
0
-2.9257e-13
-2.92777e-13
-2.02699e-13
1.42034e-14
-1.47301e-13
4.77522e-12
-5.95946e-12
-4.39568e-13
-1.29923e-11
-3.10758e-11
6.07626e-12
-7.47958e-13
7.32282e-12
1.28188e-11
-5.21185e-12
-1.47386e-13
1.45353e-13
-1.44632e-13
2.16946e-12
3.05237e-12
2.94761e-12
3.12704e-12
1.49064e-13
0
-7.45265e-13
5.02096e-12
1.5598e-11
1.2187e-11
-1.4507e-13
-5.82877e-12
9.44832e-12
2.19126e-11
8.80052e-12
-9.64428e-12
1.65574e-11
3.95658e-14
1.18118e-11
2.94201e-11
1.65207e-12
-1.94867e-11
9.87403e-12
1.72668e-11
8.75671e-12
6.88074e-12
-1.7867e-11
-3.58591e-13
-1.00288e-12
-3.34134e-11
-9.18257e-13
2.43003e-11
1.58398e-12
-1.90149e-11
-6.94794e-12
1.89993e-11
-7.25455e-13
5.7976e-13
1.76424e-11
-4.0695e-14
3.01761e-14
6.42025e-13
1.17918e-12
-3.50125e-15
7.48926e-12
-9.09649e-12
-5.90145e-14
7.09346e-11
-4.2738e-14
3.70033e-13
-1.44903e-11
-2.94245e-13
3.31117e-13
-2.22022e-13
-2.0293e-13
-1.09561e-14
5.88448e-13
1.75045e-12
-6.4683e-13
-3.67361e-13
-1.3029e-12
-1.71175e-11
-1.32243e-11
1.42322e-11
3.65854e-13
-1.39278e-12
-2.91481e-13
-2.56063e-12
5.34789e-13
-1.46378e-12
-8.50217e-12
1.66927e-11
6.05172e-12
1.58815e-11
0
-1.02988e-11
1.12191e-11
2.0664e-12
-6.70687e-12
-1.6409e-12
0
1.49275e-13
-2.07518e-12
-2.93661e-12
5.85517e-13
0
1.46796e-13
-1.17081e-11
-1.17935e-11
-6.56824e-12
-1.33049e-11
-6.3216e-12
-3.53881e-12
4.77932e-12
1.8408e-13
5.38032e-13
2.00324e-11
-3.26144e-11
-2.85063e-11
6.33735e-13
-6.97285e-13
-5.96248e-13
4.9397e-11
-1.62446e-12
1.37932e-11
1.45265e-12
-2.53592e-11
4.74054e-11
1.90411e-11
7.19285e-12
6.28315e-12
-1.61081e-11
0
-1.75258e-11
-1.52084e-13
-7.2482e-14
2.10593e-13
3.3727e-12
1.75899e-11
2.00231e-13
-1.62238e-12
2.09571e-11
-5.82629e-13
3.93394e-13
-2.50151e-14
-1.07353e-11
-6.62122e-12
4.64463e-13
-1.47361e-11
1.03222e-13
1.74488e-12
2.35677e-12
-9.29149e-13
1.5737e-11
8.43866e-14
1.05636e-11
-7.6902e-13
2.01618e-12
-5.94827e-12
-1.81892e-11
-4.02401e-12
3.34836e-12
-8.7655e-13
-1.39476e-11
-1.27149e-13
6.56824e-12
0
0
-5.72443e-12
5.85444e-13
1.46363e-13
-1.46785e-13
-9.18743e-12
-6.26953e-12
0
-7.4606e-12
-6.12218e-12
-1.3396e-12
2.96481e-13
1.48086e-13
-1.48081e-13
-2.66816e-12
-7.4418e-13
0
1.49223e-13
-1.25293e-13
4.7871e-12
-1.34028e-12
1.42326e-11
4.5789e-14
9.18879e-13
-1.10332e-14
-6.19439e-14
-1.9192e-11
8.14836e-14
7.85152e-12
-1.40428e-11
1.01088e-12
-2.81082e-11
4.74473e-11
-2.35183e-11
2.13911e-11
5.22004e-12
2.48951e-11
-1.49964e-13
6.93985e-13
1.48094e-11
2.24458e-12
5.94713e-13
-2.58352e-13
-3.9851e-13
-2.32716e-11
2.63385e-13
-1.44121e-11
8.23578e-14
-6.51675e-13
2.25217e-11
-1.49061e-13
1.39903e-12
5.95866e-14
-9.66235e-12
3.81668e-13
-2.70509e-12
-1.11652e-12
-2.07681e-13
3.71534e-13
-8.89476e-13
-3.48442e-11
7.38953e-13
7.24951e-12
6.88712e-12
1.12131e-12
1.49759e-11
-5.29978e-12
9.26511e-12
-1.91948e-13
-7.93158e-13
-5.12382e-12
1.92876e-13
-1.13256e-13
-2.686e-12
-1.70194e-11
2.97602e-12
-2.07495e-12
0
-1.48084e-13
-2.37159e-12
7.44113e-12
0
-7.16439e-12
7.14611e-12
8.93367e-13
-5.9451e-13
-1.03854e-12
-2.8178e-12
4.44918e-13
3.41223e-12
-2.19955e-11
-2.97762e-13
-2.97756e-13
7.27529e-12
4.21434e-13
-3.59193e-12
-1.54854e-12
5.16265e-12
1.64765e-11
-1.47643e-11
8.73093e-13
-1.38422e-11
-3.42998e-13
6.76082e-12
-2.97143e-13
-1.53439e-11
7.37583e-12
4.98334e-12
-2.17706e-11
7.54611e-12
-1.7853e-11
-4.75511e-12
4.20603e-13
7.16937e-12
0
2.76646e-11
-4.87751e-12
-1.0369e-12
-8.73589e-12
1.33038e-12
1.81123e-12
3.27956e-11
1.86505e-13
-7.17007e-12
1.18708e-12
1.49711e-11
1.28212e-12
1.29973e-12
-1.93857e-11
9.23788e-13
4.2944e-12
-1.30424e-11
1.05613e-13
-7.05204e-12
-8.90667e-13
1.18504e-12
2.13917e-11
-1.03106e-12
3.38362e-12
-1.87869e-12
-2.33843e-11
-7.35654e-13
-2.51765e-13
1.53667e-13
-2.96549e-13
1.11687e-12
-2.18139e-11
1.28019e-12
1.29789e-11
4.13652e-13
3.12899e-11
-2.2685e-11
-4.06098e-13
1.27794e-11
-1.34249e-12
-2.01061e-11
1.04133e-11
-1.34062e-11
1.1074e-12
-7.8943e-13
6.28691e-11
2.27867e-11
9.15604e-14
-4.3324e-13
1.01282e-11
-2.6522e-13
5.05954e-13
1.84489e-11
-2.26132e-11
1.53863e-11
-1.79921e-11
7.56001e-15
-6.78045e-13
-1.26541e-11
-3.87037e-12
3.56576e-12
1.48327e-13
1.11216e-11
0
9.79088e-12
5.94417e-13
0
-5.95625e-13
5.93864e-13
7.86425e-12
-1.48185e-13
-7.69756e-12
-1.15431e-11
0
-1.98352e-11
-7.40896e-12
1.48378e-12
-5.34476e-12
4.85821e-13
8.89692e-14
3.12205e-12
-4.0569e-13
4.38999e-12
-2.54549e-12
-5.56913e-12
-4.06234e-12
-8.33062e-12
1.04329e-13
3.33459e-14
-7.98236e-12
8.54606e-12
1.01096e-11
1.58411e-11
9.93094e-13
1.31219e-11
-3.6288e-13
-1.231e-11
4.95724e-12
1.51131e-13
6.49221e-12
-2.34945e-12
8.80464e-13
-2.46892e-13
-1.33694e-12
7.981e-13
1.5297e-13
3.68782e-12
1.39477e-14
-6.28771e-14
7.31023e-12
-7.34971e-12
-2.95359e-13
1.05439e-11
-1.68352e-12
-6.08029e-12
-1.05062e-13
-6.94272e-12
-7.47551e-12
8.18369e-12
1.34881e-12
1.17642e-12
0
1.98995e-12
1.33362e-13
2.61991e-13
1.77798e-11
-1.17363e-11
1.39247e-13
-3.25845e-13
-5.69545e-13
-1.35171e-11
2.94651e-13
-9.86384e-12
-3.26305e-12
-3.68614e-14
-1.75112e-11
6.56354e-12
3.01114e-13
-7.91504e-12
-8.12571e-12
1.40334e-11
-1.37736e-11
-1.48411e-11
5.28348e-12
-4.79746e-13
2.04622e-12
1.09899e-11
-1.04521e-13
1.22364e-13
-6.57137e-12
-1.66367e-11
1.96693e-12
1.20262e-11
2.13972e-12
1.84409e-13
2.21584e-12
-1.5189e-13
7.00513e-12
-1.48459e-13
2.96745e-13
5.484e-12
0
8.43375e-12
4.43896e-13
-7.4002e-13
-8.14897e-12
0
0
-6.37276e-12
9.18404e-12
1.03614e-12
-1.47941e-13
0
-6.95223e-12
-1.18353e-12
6.51274e-12
0
0
-6.57306e-12
8.90859e-13
-7.83475e-12
-3.49488e-13
8.30587e-14
-6.55686e-12
-6.34885e-15
1.58639e-11
9.01709e-12
2.35156e-12
6.76914e-12
2.26848e-12
-1.63908e-13
-4.95836e-13
-3.43486e-12
1.84323e-13
1.03763e-12
8.26404e-12
2.65952e-13
1.64437e-13
7.26312e-12
-7.08967e-13
1.9044e-11
1.12842e-13
-9.6874e-14
-7.53245e-14
-1.78776e-13
-3.93931e-13
-1.02454e-11
-4.96096e-12
1.19052e-13
-2.0155e-11
-1.39811e-13
1.39747e-13
3.78008e-12
7.533e-15
7.60959e-14
-9.17488e-12
9.89314e-14
-4.09776e-13
1.00834e-11
6.13474e-13
-1.14689e-11
7.23925e-12
-1.44143e-13
-1.84584e-13
6.65012e-13
-1.66811e-11
8.79805e-13
2.94474e-12
2.56364e-13
8.69629e-12
1.63967e-13
6.72309e-12
-3.75713e-13
-8.00175e-12
7.34869e-14
1.22644e-12
1.43593e-13
-6.52876e-12
-9.82622e-12
-3.9449e-13
2.44482e-13
-7.04766e-12
1.0301e-13
9.5506e-14
8.01612e-12
7.44886e-12
-5.01998e-13
3.20093e-13
-8.15969e-12
-9.47518e-12
-3.68605e-13
-6.88271e-12
9.29029e-14
7.56067e-12
-9.40045e-14
-1.1453e-13
-5.09729e-14
6.44428e-12
-7.70621e-12
-9.4795e-12
0
2.95826e-13
-2.95764e-13
-4.43633e-13
-8.43046e-12
1.47991e-13
1.48111e-13
1.482e-13
1.14003e-11
1.0657e-11
-4.43868e-13
8.87491e-12
-7.09932e-12
-5.916e-13
0
2.95897e-13
-7.10437e-12
6.66232e-12
5.60978e-13
-3.94944e-13
9.13785e-14
8.70449e-12
-7.21086e-12
-9.13914e-14
-2.54453e-14
-1.18156e-13
-7.56795e-12
7.17387e-12
-1.14171e-11
-3.92993e-12
1.06878e-12
-4.17138e-14
-3.72776e-13
4.45382e-13
4.89255e-14
-5.96991e-13
-6.42324e-13
-6.57221e-12
-6.0524e-13
4.14857e-13
1.90522e-14
-4.26668e-14
8.56719e-14
-6.55136e-12
-2.12926e-14
1.44624e-13
7.71734e-14
-1.24388e-11
-5.97316e-13
-4.08948e-12
-8.13609e-12
3.86099e-14
6.61987e-13
-6.92907e-12
-7.51756e-14
-4.88163e-13
-1.33678e-13
-1.54938e-13
6.96897e-12
-1.37948e-13
-7.98388e-13
-3.64691e-13
2.76372e-13
6.485e-12
8.07413e-12
7.05373e-12
-7.80366e-12
5.03948e-12
6.29162e-13
-2.80685e-12
7.02906e-12
-1.03502e-13
-5.51712e-14
7.18664e-12
1.35803e-13
6.57954e-13
1.43216e-13
3.20039e-13
-7.11857e-12
2.53126e-13
5.39718e-13
4.64635e-14
-7.86164e-12
5.23838e-14
-7.61914e-12
-7.1975e-12
7.45112e-12
-1.76623e-13
1.70498e-12
7.00416e-12
-6.61874e-12
3.57253e-15
8.90536e-13
9.96562e-12
7.43569e-12
-2.13317e-13
-2.82533e-14
-2.26493e-13
1.33241e-12
6.80803e-12
-6.80496e-12
5.9153e-13
8.42809e-12
9.75864e-12
6.95011e-12
1.47923e-13
-1.47988e-13
0
4.4393e-13
0
-7.1004e-12
2.95805e-13
0
7.54252e-12
-7.39494e-13
-9.76258e-12
1.47947e-13
0
8.43322e-12
5.55231e-13
-7.14139e-12
-6.69148e-13
-3.32655e-13
7.46512e-12
-3.35816e-13
-1.87375e-11
-4.45224e-14
1.76646e-13
1.33436e-13
1.96302e-13
9.56804e-12
2.35238e-13
9.40823e-13
-4.73679e-14
-3.97082e-15
-5.03051e-13
5.61772e-14
2.54634e-14
-8.10664e-12
-1.01444e-12
-1.81227e-14
5.82591e-13
6.27071e-13
8.43365e-12
-1.42534e-13
8.54167e-12
-1.03679e-11
-9.41271e-12
-6.89077e-12
2.44375e-13
-1.69798e-11
-3.18823e-13
-9.35203e-13
3.44019e-13
4.30849e-13
-4.55448e-14
-9.26098e-14
2.13239e-14
8.40883e-12
3.67536e-13
-9.33475e-12
7.04214e-16
-3.42932e-13
-8.22685e-12
-9.93853e-14
1.7275e-13
5.89468e-13
9.07621e-12
6.70522e-12
-1.17005e-13
-2.79136e-12
-8.50827e-12
-3.98714e-13
-6.60974e-13
-1.03056e-13
2.13981e-13
-4.13619e-13
1.09383e-13
-5.51818e-13
-1.83626e-13
8.93066e-12
3.64806e-13
-5.24107e-14
-1.85091e-13
5.03814e-14
-9.16437e-12
9.63554e-12
0
-3.36404e-14
1.14084e-13
1.00895e-11
8.4848e-12
1.86409e-13
1.34444e-14
6.5635e-14
7.83863e-14
5.91572e-13
-1.87901e-13
-7.69441e-12
-1.4794e-13
1.47902e-13
1.47874e-13
1.4786e-13
-4.43571e-13
2.95733e-13
9.02132e-12
0
-2.95913e-13
-5.91721e-13
7.54372e-12
0
-2.07047e-12
0
0
1.47884e-13
-1.47893e-13
-1.47911e-13
0
-5.91666e-13
1.47905e-11
1.47891e-13
0
9.61245e-12
5.91526e-13
8.7248e-12
-1.3309e-12
1.47892e-13
9.02215e-12
0
5.9156e-13
-7.39418e-12
2.07045e-12
1.47898e-13
7.39469e-13
1.47879e-13
-8.42857e-12
6.50649e-12
1.47886e-13
0
-7.24625e-12
-1.47889e-13
0
-1.0207e-11
-4.43762e-13
-8.72569e-12
7.39339e-13
1.47861e-13
-9.16777e-12
0
-2.95763e-13
7.5427e-12
-3.84607e-12
-1.47952e-13
-4.43834e-13
1.77489e-12
1.64136e-11
-6.50561e-12
0
2.95759e-13
-7.39385e-13
-9.90873e-12
-1.4792e-12
-8.28484e-12
1.47937e-13
9.02189e-12
0
-1.47849e-13
1.47854e-13
1.47881e-13
-7.54151e-12
-7.98527e-12
1.03524e-12
0
-1.47898e-13
-1.33084e-12
-8.42738e-12
0
0
0
-1.47878e-12
1.02028e-11
1.47864e-12
9.61131e-12
-1.47861e-13
-1.47846e-13