/*--------------------------------*- C++ -*----------------------------------*\
  =========                 |
  \\      /  F ield         | OpenFOAM: The Open Source CFD Toolbox
   \\    /   O peration     | Website:  https://openfoam.org
    \\  /    A nd           | Version:  10
     \\/     M anipulation  |
\*---------------------------------------------------------------------------*/
FoamFile
{
    format      ascii;
    class       volScalarField;
    location    "0.4";
    object      gradTx;
}
// * * * * * * * * * * * * * * * * * * * * * * * * * * * * * * * * * * * * * //

dimensions      [0 -1 0 1 0 0 0];

internalField   nonuniform List<scalar> 
46825
(
1.49086e-13
-1.32471e-13
-9.02217e-12
-3.7179e-14
1.55168e-11
-5.66045e-13
-1.09988e-11
5.84915e-13
4.13953e-12
-4.47299e-13
2.98106e-13
1.32386e-13
1.7586e-13
1.02575e-12
9.42972e-14
-1.1225e-12
-9.25829e-12
4.2341e-13
9.95977e-12
2.98125e-13
-7.59413e-12
2.30282e-12
7.29083e-12
-9.76486e-12
-7.21921e-12
-9.99948e-14
-4.92741e-13
5.3086e-13
7.20227e-13
-1.48912e-13
-1.48691e-13
1.4107e-13
-8.49177e-12
-5.3988e-13
8.47217e-12
2.516e-13
1.03465e-11
-3.59538e-13
-1.0057e-11
2.97386e-13
6.98187e-12
7.51829e-12
3.99435e-13
-3.76315e-13
1.65006e-13
-1.863e-13
9.60369e-12
-4.99997e-14
-9.35675e-12
4.45643e-13
-6.98269e-12
-2.31888e-13
3.21104e-13
-7.05131e-12
8.52581e-12
-3.84742e-15
-8.66693e-12
-1.25597e-13
-1.53433e-13
2.97125e-13
6.09821e-12
5.94859e-12
5.06796e-13
-6.77971e-12
-6.36569e-12
5.91091e-13
-9.31281e-13
7.29288e-14
3.76544e-13
2.97462e-13
-4.46889e-13
-1.42844e-13
6.54573e-12
-2.85582e-13
-6.41727e-12
2.53793e-13
-7.74116e-12
2.61378e-13
7.76132e-12
0
1.491e-13
-6.93594e-12
-7.17109e-14
6.68598e-12
2.18935e-13
-2.54559e-13
6.50762e-13
3.22852e-13
-5.81075e-13
-1.49101e-13
1.49119e-13
-1.23762e-15
-9.05901e-13
-6.98666e-14
5.94183e-13
-1.82756e-13
-4.87199e-13
-3.49144e-14
5.29112e-13
1.49126e-13
-2.98394e-13
-8.98411e-14
1.6206e-13
4.10253e-13
5.02634e-15
-1.67543e-14
7.01701e-12
-3.29687e-13
2.88945e-13
7.16236e-12
0
-5.95427e-14
-9.13268e-12
7.13351e-12
9.09916e-12
-7.36711e-12
4.87635e-14
4.33123e-13
7.39383e-14
1.49332e-13
0
1.64586e-12
1.47763e-11
-1.51968e-11
8.90881e-13
9.35555e-14
-4.99388e-13
-2.5776e-11
4.45139e-12
-1.49297e-13
-2.98387e-13
-3.3644e-12
1.14907e-12
1.73609e-11
-4.42521e-12
-1.36575e-11
4.55001e-15
7.73356e-13
-2.24291e-13
0
4.47474e-13
3.17818e-12
-1.57409e-11
1.53572e-11
6.37836e-13
-1.77983e-11
1.80668e-11
-1.52748e-11
2.87902e-12
-1.04409e-12
-1.49173e-13
-2.20628e-12
4.58773e-12
-2.72228e-14
-7.85011e-13
2.12766e-13
-7.20012e-14
3.75483e-13
4.11329e-13
2.98332e-13
7.01407e-12
-2.13159e-12
-8.47835e-12
4.46094e-13
2.03314e-11
-2.03204e-11
-2.57573e-13
2.53758e-12
-7.47898e-13
0
0
2.91895e-12
-4.69765e-12
-1.91637e-12
2.05534e-12
-2.89352e-13
1.0325e-13
-4.62422e-15
-5.38873e-12
1.25444e-11
5.07825e-12
5.37253e-12
-2.37836e-14
-1.39729e-12
7.46884e-12
1.0878e-12
-1.52547e-11
-2.12644e-13
8.4319e-12
4.48082e-13
2.98441e-13
-5.36732e-14
-4.59298e-13
-3.27603e-13
-7.08003e-14
7.85448e-13
2.03454e-13
-2.15123e-13
-7.77128e-12
-7.6107e-12
-1.04414e-11
-1.11846e-12
4.85248e-13
-9.31646e-12
-7.30181e-13
1.15148e-11
4.04554e-14
-1.17692e-11
-8.88615e-14
1.49191e-13
1.3131e-11
1.38244e-11
-2.22343e-13
1.7261e-13
-2.32133e-13
-3.32432e-13
-3.22188e-13
1.43032e-11
-1.36949e-11
-1.49247e-13
-4.47221e-12
-4.56389e-12
7.40238e-13
-1.40952e-12
3.47225e-13
1.54549e-13
-9.05837e-13
-1.40732e-11
1.42299e-11
2.98189e-13
-1.69814e-11
-1.28186e-11
1.35839e-11
-7.93934e-08
-7.47974e-09
1.70395e-09
2.2269e-08
3.10611e-09
2.6699e-11
2.0409e-11
1.49007e-13
2.7772e-11
-1.48381e-12
-1.11376e-07
8.28705e-09
-1.88454e-09
-2.2314e-08
3.80743e-09
-1.84058e-13
-1.63909e-11
5.36449e-12
1.63989e-14
4.99219e-11
-1.14441e-07
8.86799e-09
-2.01751e-09
-2.3444e-08
3.88882e-09
-5.00549e-14
-2.98014e-13
-9.68387e-12
5.72776e-12
3.17452e-11
-9.93307e-08
6.80173e-09
-1.5354e-09
-1.78177e-08
3.7322e-09
-2.92479e-13
-3.42633e-12
3.72784e-12
-1.62916e-11
3.29608e-11
-2.58657e-10
-2.16619e-10
4.92442e-11
6.38393e-10
-5.67621e-12
-4.50996e-13
9.39369e-12
2.98511e-13
2.78577e-13
-2.26264e-11
2.35959e-11
-1.08001e-12
1.83201e-13
6.40397e-13
-1.78558e-11
1.69144e-11
-2.08961e-12
1.49171e-13
-1.27427e-13
4.61549e-14
-1.96754e-13
8.58424e-12
-1.4508e-13
-8.04696e-12
-8.38576e-14
-7.01853e-14
1.49187e-13
-8.77969e-12
2.88063e-13
8.51121e-12
-3.39072e-13
6.75763e-12
6.79406e-12
-6.70746e-12
-5.67156e-12
-1.11019e-13
-1.04198e-12
1.91631e-11
1.91186e-11
8.87972e-13
-2.65899e-11
-5.88796e-12
1.32227e-12
3.28388e-11
5.169e-13
-4.47565e-13
-4.45838e-13
-7.37934e-13
-9.02864e-13
-1.46245e-09
-6.92951e-08
-1.94753e-09
3.67393e-10
4.48187e-09
1.71704e-07
5.89076e-08
-1.13683e-11
-8.94694e-12
4.69629e-09
1.66337e-05
-0.591532
-0.00344513
0.000217334
0.00928097
0.454752
7.05785e-07
-2.93405e-13
-7.4703e-12
4.57477e-09
1.71599e-05
-0.900861
-0.0117355
0.000696822
0.0332324
0.595649
5.96942e-07
-6.44547e-12
8.49579e-12
4.56112e-09
1.72481e-05
-0.905245
-0.0122583
0.000735758
0.0341575
0.597772
5.90384e-07
8.05619e-12
3.37369e-12
4.64847e-09
1.69617e-05
-0.890319
-0.0121198
0.000694159
0.0338448
0.588539
6.15494e-07
-2.7867e-12
2.06663e-12
2.95641e-09
1.73395e-05
0.00415366
-0.00274405
-0.00380881
-0.00464592
-0.0167224
2.14821e-07
-1.18095e-12
1.48588e-13
-1.20539e-13
3.07556e-09
5.59302e-09
1.32844e-10
-1.70595e-11
-7.99237e-10
-7.28021e-09
-4.20579e-13
2.22913e-12
-7.58922e-12
-6.9752e-14
8.18607e-12
-2.01226e-13
-1.00767e-13
2.43447e-13
6.49149e-12
-1.80053e-13
-5.9124e-12
5.95335e-13
0
8.43017e-12
1.02062e-11
2.11487e-12
-1.0065e-11
-1.87224e-12
-4.98424e-13
4.42014e-14
-3.67711e-14
-8.1769e-12
2.96633e-13
1.52941e-12
2.21011e-11
7.71947e-10
2.33024e-10
-2.04411e-11
-4.91254e-10
1.07783e-11
-4.12389e-11
3.70981e-12
-1.17517e-12
-1.59118e-10
-1.06838e-06
-0.00152801
0.000518773
8.69731e-05
-0.000519802
0.000580903
3.63247e-07
-9.84575e-12
-5.37046e-12
-1.63195e-08
-0.47327
0.000116911
-1.16147e-12
-1.09866e-11
-7.29095e-08
-0.576742
0.000280975
4.77094e-12
-2.02395e-12
-6.85101e-08
-0.577901
0.000281443
1.76364e-11
-5.80703e-12
-8.17219e-08
-0.575287
0.000278797
6.09573e-12
1.46943e-13
1.41636e-09
0.0172671
-1.97895e-05
-5.5832e-12
1.18696e-11
4.21534e-12
7.31464e-09
3.29668e-06
2.91206e-07
-5.05358e-08
-1.25758e-06
7.35933e-07
1.09688e-10
-7.86493e-12
1.4862e-12
-6.58998e-12
-4.86901e-13
1.27961e-11
-2.40819e-13
-4.35821e-12
2.59245e-12
-8.32689e-13
3.90805e-12
6.68926e-12
-7.43324e-12
8.51176e-12
7.47838e-12
-8.73325e-12
1.73817e-13
-1.00075e-13
-3.51272e-14
3.55e-13
-5.32563e-14
-1.4871e-13
-9.35458e-12
-1.25258e-11
1.93058e-11
1.7081e-10
3.10951e-10
-7.6635e-12
-6.87071e-10
-1.46597e-11
-4.02647e-14
4.45611e-13
1.3234e-12
-1.95086e-10
-1.12098e-06
0.0165242
0.00044862
9.0972e-05
-0.000798989
0.00066516
3.78979e-07
2.94081e-13
-2.3209e-12
-8.30248e-09
-0.485941
0.000201206
-8.12252e-12
-6.49448e-12
-7.95322e-08
-0.601909
0.000321481
1.9628e-11
1.29899e-12
-7.30382e-08
-0.603575
0.000322758
2.15039e-11
5.07831e-12
-8.73372e-08
-0.599911
0.000316143
-3.19078e-12
3.97176e-12
1.64728e-09
0.018081
-2.09059e-05
-3.52915e-12
1.72313e-11
-2.78253e-13
7.72637e-09
3.83301e-06
4.1519e-07
-7.48411e-08
-1.72422e-06
8.2688e-07
1.31835e-10
5.94221e-13
6.39279e-12
-9.11175e-12
-6.50677e-12
9.31413e-12
5.23392e-13
-3.03831e-13
-1.01227e-11
-6.91549e-12
1.7066e-11
1.45723e-11
-2.97499e-13
1.79166e-11
7.24939e-12
-1.09951e-11
-3.59626e-14
-9.64638e-12
2.26767e-13
2.41241e-12
1.80511e-13
6.99343e-12
-9.06538e-12
-1.43486e-11
2.97535e-12
1.09711e-10
2.91495e-10
-1.01556e-11
-6.74664e-10
-1.52837e-11
7.69191e-14
0
2.50188e-12
-1.97171e-10
-1.1294e-06
0.0166268
0.000449326
6.08809e-05
-0.000800368
0.000670274
3.82374e-07
-7.35766e-13
-1.01602e-11
-3.73221e-09
-0.486581
0.000202679
3.773e-12
-7.65266e-12
-7.21237e-08
-0.603153
0.000322854
7.07486e-12
-9.09745e-12
-6.74942e-08
-0.604743
0.000324023
1.32844e-11
0
-8.25627e-08
-0.601035
0.000317087
4.64495e-12
8.83375e-13
1.65632e-09
0.0181108
-2.09622e-05
5.88807e-13
1.4868e-13
4.37732e-14
7.70897e-09
3.88608e-06
4.37374e-07
-7.42085e-08
-1.74342e-06
8.29276e-07
1.30451e-10
-2.37918e-12
0
9.84687e-12
4.16136e-13
-1.99745e-11
-4.21905e-13
1.06449e-11
5.46235e-12
-3.53197e-13
-4.96313e-12
0
1.11618e-11
-3.63348e-13
-1.1434e-11
4.46246e-13
5.54628e-14
-9.38811e-13
-8.41497e-12
8.83963e-12
8.75311e-12
-8.48537e-12
1.48695e-12
-6.28757e-13
4.89664e-13
9.65049e-11
3.04357e-10
-4.33604e-11
-6.47785e-10
-1.79416e-11
1.88097e-13
1.48743e-13
1.45784e-11
1.83295e-11
-1.12057e-06
0.0166395
0.00044938
3.06605e-05
-0.000830445
0.000670425
3.80461e-07
2.20848e-12
-4.50245e-12
-3.95181e-09
-0.486613
0.000202906
4.64647e-12
3.90122e-12
-7.2151e-08
-0.603184
0.000322974
8.66915e-12
-5.9246e-12
-6.72006e-08
-0.604866
0.000324082
3.75723e-12
-3.92263e-12
-8.22885e-08
-0.601063
0.000310657
5.66643e-12
1.4732e-13
1.64256e-09
0.0181087
-9.42928e-06
3.9779e-12
2.23151e-12
-5.35614e-12
7.66692e-09
3.88639e-06
4.39819e-07
-7.27792e-08
-1.75027e-06
8.29204e-07
1.42656e-10
2.67826e-12
-7.73947e-12
-2.88871e-12
7.77425e-12
-8.63845e-12
8.23953e-14
1.12068e-11
-5.16138e-13
4.71025e-13
3.79944e-13
-1.48862e-13
-9.08172e-12
-9.72599e-12
8.722e-12
8.04359e-12
-8.89851e-12
1.95114e-12
5.3472e-13
-1.02577e-11
-1.10445e-12
-1.48922e-13
-1.48752e-13
6.46746e-14
-1.96504e-13
1.5563e-10
2.74292e-10
-3.73165e-12
-6.49695e-10
-4.67658e-11
1.38917e-11
-3.57115e-12
8.10375e-12
3.45719e-11
-1.12156e-06
0.0166207
0.000449105
6.08535e-05
-0.000829976
0.000670621
3.81739e-07
-1.47323e-13
-1.14868e-11
-7.26771e-09
-0.486433
0.000202879
3.9251e-12
-3.3283e-12
-7.57184e-08
-0.602792
0.000322221
4.05178e-12
-1.96823e-11
-7.07919e-08
-0.60438
0.00032327
-3.32866e-12
-5.38164e-12
-8.64294e-08
-0.600663
0.000315167
-1.16357e-11
0
1.64511e-09
0.0180966
-5.03412e-05
3.53781e-12
0
-2.05309e-12
7.67426e-09
3.84828e-06
4.31831e-07
-6.15999e-08
-1.71193e-06
8.23152e-07
1.24456e-10
3.27457e-12
0
6.87325e-12
-1.735e-13
-7.06674e-12
4.22648e-13
7.34795e-15
-6.24647e-15
7.88032e-12
-2.59918e-13
-7.44574e-12
-2.97844e-13
-2.18493e-13
6.10833e-13
7.64662e-12
-7.49943e-14
-7.5536e-12
-1.42591e-13
4.81055e-14
-1.16876e-13
-1.4896e-13
2.97597e-13
-1.02543e-12
-1.9292e-11
-2.66997e-10
-3.71995e-11
2.30743e-11
-2.16409e-11
-3.78851e-11
2.88726e-11
-8.03741e-12
8.99483e-12
1.63904e-11
-1.10754e-06
0.0141415
0.000350675
2.97307e-05
-0.000609173
0.000630667
3.75101e-07
-6.78252e-12
-4.22592e-12
1.71132e-08
-0.478635
0.000166824
-5.82796e-13
-3.3384e-12
1.14256e-08
-0.585551
0.000195101
-2.61254e-12
-8.70962e-13
1.57975e-08
-0.586815
0.000195081
5.80608e-13
1.16608e-11
-1.28186e-09
-0.583986
0.000197352
-2.18593e-12
-1.47514e-13
1.26295e-09
0.0175232
-1.88987e-05
2.65486e-12
1.48861e-13
1.57692e-11
6.81407e-09
2.75534e-06
2.13329e-07
-2.7959e-08
-8.55975e-07
6.51672e-07
1.13467e-10
0
0
-5.90019e-14
-9.96849e-12
-5.82219e-13
1.09931e-11
8.68541e-13
-1.2768e-11
-4.27371e-13
1.23527e-11
0
-1.78731e-11
-7.74833e-12
1.03079e-11
5.28311e-13
4.11108e-14
1.07416e-11
-7.17266e-14
-1.11964e-11
-8.50463e-14
0
-1.57753e-11
-1.20064e-11
-1.48846e-12
6.26021e-13
-1.15828e-15
-7.43402e-14
6.21899e-13
-1.17769e-12
-1.30956e-12
-2.53033e-12
-3.39131e-12
1.14081e-11
-2.62656e-08
3.21998e-07
8.94663e-09
7.11663e-10
-1.74064e-08
-1.70055e-06
4.37561e-09
-2.94903e-12
-3.64272e-12
6.11861e-11
-4.17097e-05
-1.38872e-07
1.20935e-11
-1.45149e-13
4.74579e-11
-4.28337e-05
-1.45552e-07
1.45143e-13
8.70947e-12
4.25406e-11
-4.28597e-05
-1.45998e-07
3.04814e-12
9.91024e-12
5.67445e-11
-4.27662e-05
-1.44002e-07
3.06014e-12
-5.89996e-13
-8.43341e-11
-3.75985e-05
-3.92952e-09
-3.24462e-12
1.19101e-12
-1.32061e-11
6.66432e-11
-1.31809e-09
-1.00855e-10
1.62256e-11
3.51423e-10
-8.25985e-10
-9.06402e-12
2.9776e-13
0
-3.40533e-13
3.5999e-14
3.56582e-13
-6.57878e-12
-5.15927e-14
6.06349e-12
1.44287e-13
1.31407e-12
2.97928e-13
0
1.59905e-14
-2.64827e-14
1.1937e-11
7.69593e-12
-1.17588e-11
6.32799e-13
-7.41675e-12
-9.14971e-12
6.2562e-12
8.9291e-13
-1.10783e-13
1.19138e-12
9.78875e-13
-1.00591e-12
-2.64135e-13
1.50513e-11
2.35363e-12
-1.71636e-11
2.52996e-12
-2.94688e-12
-1.1313e-11
3.32574e-11
2.74991e-11
-1.37365e-12
-3.30517e-11
-1.50818e-12
-1.11927e-11
5.28755e-12
-3.09447e-12
-3.19866e-12
6.51338e-12
-8.17935e-13
-4.49676e-12
-1.09053e-11
-1.6064e-11
-1.24889e-11
1.11532e-11
1.49928e-11
-3.47322e-12
2.89456e-13
-3.71496e-13
3.93195e-12
1.17238e-12
-1.44721e-13
-1.45416e-13
-8.87118e-14
6.48668e-12
2.91421e-13
-1.30864e-11
-2.04872e-11
-7.30196e-12
-4.74553e-12
6.29185e-12
-8.25277e-12
-5.5079e-12
5.94114e-12
-3.0134e-13
-1.93902e-12
4.21274e-12
-1.98954e-12
-4.43388e-13
1.80539e-13
-4.82532e-14
-4.46564e-12
4.46836e-13
6.11835e-14
-7.66454e-13
1.05364e-13
-2.30359e-14
-7.04495e-13
-1.07908e-13
-9.11489e-12
1.90246e-13
9.68204e-12
-1.68296e-11
-8.08152e-14
1.63529e-11
-6.80335e-12
7.04967e-12
6.70517e-12
-6.43706e-12
-2.71363e-13
1.88555e-13
-1.48942e-13
1.78565e-12
2.22389e-13
-1.48947e-11
1.49409e-11
2.29925e-13
-1.84179e-13
-2.21054e-11
2.82463e-11
-6.11661e-12
2.97598e-12
2.94572e-13
-9.50026e-13
3.83699e-11
1.74321e-12
-5.89792e-13
8.89866e-13
-2.55302e-12
-1.48528e-12
1.20929e-12
-3.977e-12
-1.45253e-13
4.31888e-13
1.49369e-12
-5.74989e-13
0
0
1.26753e-12
1.43639e-11
1.46454e-13
-2.89052e-13
-1.15629e-12
2.08139e-13
-2.50252e-12
8.51205e-12
-5.20307e-12
-4.35818e-13
-1.23804e-13
9.4415e-13
4.22993e-12
9.87784e-12
-2.94653e-13
2.23261e-13
1.29631e-11
6.87939e-12
-1.39943e-11
-7.88855e-12
-1.4637e-11
-2.92868e-13
-7.60814e-12
-1.9837e-13
2.49016e-13
-8.10797e-13
8.18901e-13
-2.83161e-13
-1.04183e-12
-7.44667e-12
-1.58167e-11
-2.53466e-13
1.56163e-11
7.11707e-12
-7.52913e-12
-5.6132e-12
1.19099e-13
-1.17836e-12
-1.4894e-13
7.44638e-13
6.30646e-13
-4.60327e-15
-6.75557e-12
1.97988e-13
7.04179e-12
7.42628e-12
9.49191e-12
-7.75864e-12
-9.8295e-12
0
-1.00667e-12
5.95795e-13
1.57285e-11
-1.44433e-11
-1.52437e-11
1.44759e-11
2.05952e-12
-1.97367e-12
1.22012e-11
2.50365e-12
-4.11511e-12
-1.75566e-12
4.06824e-12
6.66613e-11
-2.53395e-11
3.80152e-13
-7.02148e-13
3.65322e-12
-2.94546e-13
1.45225e-13
-5.04636e-13
4.85046e-11
8.86652e-12
1.14728e-11
1.01145e-11
6.13745e-12
-9.79776e-13
1.36281e-11
-6.06858e-12
5.77993e-13
-1.85312e-12
6.94215e-12
-6.02013e-12
3.32336e-12
-2.61433e-12
2.0653e-11
-8.12522e-12
5.25325e-12
7.26169e-12
5.45027e-12
-4.534e-12
4.32159e-13
-4.45018e-12
8.83761e-13
-8.92976e-12
-1.14846e-11
-1.20785e-12
1.37396e-12
-7.05759e-13
5.06029e-13
-1.45678e-11
1.50272e-11
-5.62116e-13
0
0
1.75968e-13
1.3951e-13
-4.58659e-13
-7.31902e-13
-9.36753e-12
8.97048e-12
1.19322e-11
-8.09702e-12
-1.93609e-12
2.38293e-12
2.62913e-12
7.38609e-13
9.7739e-12
-2.96467e-15
-2.99389e-12
3.31433e-13
-7.04776e-12
8.47661e-12
8.48946e-12
-2.38076e-12
8.59858e-13
2.97885e-13
2.05551e-11
-2.03365e-11
1.49183e-11
-1.47641e-11
0
1.44932e-11
-2.67839e-12
1.6938e-11
1.44815e-11
2.8849e-11
0
0
-7.38235e-13
7.36e-11
-4.14195e-11
1.32035e-11
-3.8294e-12
-6.10123e-12
-1.70029e-12
-1.59587e-12
-7.19481e-12
3.3411e-12
-3.32467e-12
1.55308e-11
-3.40207e-11
-6.2266e-12
2.3128e-12
-1.80696e-11
-6.62027e-12
4.29916e-11
-4.84422e-12
1.44554e-13
-7.26411e-13
-2.80735e-13
-4.91123e-13
-6.20012e-12
1.16222e-12
9.72292e-12
-1.6535e-11
3.12575e-11
-1.83714e-11
1.66458e-11
1.53295e-11
1.03821e-11
2.05321e-11
-2.00117e-11
2.18243e-11
-4.50938e-11
2.18873e-11
4.68969e-13
3.46639e-13
-7.14371e-12
0
5.20654e-13
-8.95146e-12
-1.90376e-13
2.01012e-11
-1.66427e-13
-1.06368e-11
-1.80661e-13
-1.47229e-13
0
5.95762e-13
3.22543e-13
6.40781e-13
-5.59727e-14
-3.9091e-13
-1.5475e-12
1.47457e-13
1.73549e-12
7.12791e-12
7.29854e-12
-7.58897e-12
2.73652e-12
-1.75684e-11
1.14673e-12
1.24322e-11
-1.361e-11
5.16394e-13
0
2.14018e-13
-3.42274e-12
9.72478e-12
9.78474e-12
1.50264e-13
0
-2.3576e-12
-1.54926e-12
5.74632e-13
4.33285e-12
6.03743e-12
0
-4.36341e-13
4.05277e-13
9.98281e-14
-7.26042e-14
4.65439e-12
1.44808e-13
2.64431e-13
1.45325e-11
6.58424e-12
-1.44808e-13
-2.46183e-12
4.88731e-12
3.98431e-12
-6.52295e-12
1.73775e-12
-1.2801e-11
-1.01117e-11
3.83706e-12
-3.64306e-13
0
-2.3581e-12
3.67869e-12
1.88597e-11
-2.36972e-11
6.18974e-12
-8.7819e-12
-9.76056e-12
-6.03474e-13
-2.0464e-11
2.04041e-11
1.52235e-13
-2.46477e-13
1.48556e-13
6.50871e-14
-4.46525e-13
1.28095e-11
2.44867e-13
-1.28561e-11
-1.09638e-11
-3.51476e-13
1.03683e-11
5.78668e-13
1.04851e-11
-1.00513e-13
-1.07243e-11
-1.48961e-13
2.3103e-13
-9.3616e-12
-2.33502e-13
9.28475e-12
-2.02674e-13
3.64447e-14
5.87723e-14
-1.32387e-13
-2.9797e-13
1.19063e-12
5.01362e-14
2.26213e-11
-4.03776e-11
1.75902e-11
-1.77581e-11
1.88351e-11
1.16363e-12
-2.4653e-12
-2.5306e-12
0
-1.25095e-12
2.2301e-12
-7.37113e-14
6.3728e-11
-1.57104e-12
5.91497e-13
4.00719e-13
-4.35227e-12
-1.47476e-13
-2.76942e-12
-4.63899e-13
-9.61871e-12
1.61924e-11
-2.47795e-12
2.90432e-13
1.7738e-13
4.33047e-12
-4.4224e-12
-5.80869e-13
-8.71334e-13
-9.98759e-13
-2.99825e-11
4.57732e-12
2.75921e-12
1.89508e-12
-5.90774e-12
-4.68264e-12
-4.33127e-12
1.45771e-13
-4.42534e-12
4.47475e-12
2.14965e-12
7.30394e-13
-5.16251e-12
1.04228e-12
-1.05461e-11
1.26397e-11
-4.14609e-12
4.01193e-13
-4.52103e-13
-2.53242e-11
2.60955e-11
2.4845e-13
-9.67801e-12
0
-2.1638e-13
1.95021e-13
-1.1673e-13
1.72653e-14
1.20035e-11
8.71994e-12
-1.20301e-11
-9.73756e-12
-4.46956e-13
5.95862e-13
8.71046e-13
-6.46663e-13
-1.44433e-13
4.60438e-13
2.01162e-14
-1.249e-13
3.63004e-14
-1.70284e-13
-2.98006e-13
-9.5252e-12
-9.20927e-12
-2.97829e-13
-1.65413e-13
-7.32459e-14
5.56677e-13
4.84735e-13
2.94504e-13
-1.70491e-13
9.82635e-12
8.84744e-12
3.70944e-12
-1.14326e-12
-1.05702e-12
-1.34177e-12
-2.98027e-11
6.79838e-12
6.27763e-14
1.25135e-12
-2.5072e-12
1.45656e-13
-2.25174e-13
-1.17849e-11
7.29227e-14
-1.19443e-11
-2.90089e-12
-1.51929e-11
1.69813e-11
2.24064e-11
2.90098e-13
0
-6.66585e-13
-4.62394e-12
1.17394e-11
-2.32085e-12
-1.45662e-12
3.57455e-12
-1.8749e-11
-1.04994e-11
-9.90486e-12
5.75255e-12
-4.33359e-12
-8.60965e-13
6.80867e-12
3.24491e-12
3.27631e-12
2.39247e-13
-5.59365e-13
4.52461e-13
3.40537e-13
-1.8815e-11
1.86346e-11
1.37004e-11
-1.35755e-11
2.97843e-13
-1.28141e-11
-6.47301e-13
1.29459e-11
1.63714e-13
-1.66852e-13
4.02823e-13
-1.72664e-13
-1.26245e-11
1.25789e-13
1.25161e-11
0
-9.85816e-14
2.09393e-13
2.28125e-13
1.92884e-14
-8.20911e-14
-3.71418e-13
3.71376e-14
-5.02564e-14
1.48993e-13
2.82712e-12
2.00189e-15
1.45987e-11
-1.46022e-11
1.23883e-12
-2.07817e-12
6.76389e-13
5.88491e-13
-1.06768e-13
-1.30993e-11
4.42074e-12
-5.81108e-12
1.43159e-12
-1.15819e-12
6.00552e-13
1.02733e-13
6.67734e-13
1.04803e-12
0
-7.51596e-12
1.45381e-13
-1.41019e-11
3.30363e-11
-1.97063e-12
-9.59504e-12
-1.73596e-12
1.5151e-11
-1.96045e-11
4.75451e-12
3.76135e-12
5.20803e-12
1.04465e-13
-9.4093e-14
-1.10668e-11
-9.69292e-12
1.45374e-13
-6.93144e-13
1.57035e-11
1.31884e-11
-2.47143e-12
-1.47386e-13
-1.92208e-13
9.78601e-12
4.53499e-12
8.8434e-12
1.47404e-11
1.13359e-11
2.11311e-12
-2.23172e-12
1.33415e-12
-1.19313e-13
-1.41175e-13
-3.8871e-14
1.33817e-13
1.08697e-11
-1.34096e-12
-9.25279e-12
1.9597e-12
2.84903e-13
-1.66479e-11
-1.21492e-13
-6.42191e-13
-9.12325e-14
1.70482e-11
9.08899e-12
0
8.34673e-12
2.4305e-13
-8.17929e-12
-3.31822e-14
-5.58672e-13
0
1.93411e-13
-1.15498e-13
2.98008e-13
7.5884e-12
-2.33522e-11
1.57921e-11
-1.74667e-13
8.21644e-14
-3.29993e-13
-2.19839e-11
2.12158e-11
1.19186e-12
-2.82826e-12
-8.25029e-12
-2.47362e-12
9.78279e-13
-2.37673e-11
-3.57241e-11
9.30799e-12
2.2513e-12
-3.38222e-11
2.98938e-11
-3.83053e-12
-1.45302e-13
6.95226e-13
1.2809e-11
2.83377e-12
9.58888e-12
2.89105e-13
-1.40098e-12
1.02905e-12
-2.01432e-11
3.03566e-12
-2.45745e-12
1.70266e-11
-1.19489e-11
4.77058e-12
3.46942e-12
8.71766e-13
4.24708e-12
1.70097e-12
2.86663e-11
-1.2641e-11
-1.47352e-13
5.6632e-13
-1.037e-11
7.46554e-12
-2.94725e-13
-2.23328e-12
-1.10741e-12
4.44712e-13
5.65509e-13
-5.24341e-13
1.9482e-11
-1.87789e-11
-3.22294e-11
3.27278e-11
-4.467e-13
-2.98011e-13
7.13877e-12
-1.03176e-11
-7.15129e-12
7.53884e-12
-7.77786e-14
-8.2093e-12
-9.7882e-12
1.15454e-11
9.98361e-12
-4.47031e-13
2.53074e-14
-8.3351e-12
6.95015e-12
5.50275e-13
-2.36374e-11
8.40049e-12
1.62113e-11
8.37176e-12
7.75099e-12
-2.23266e-12
8.71641e-13
-1.48984e-12
-1.75442e-13
1.38959e-13
-1.74011e-13
-2.59699e-13
-1.15052e-12
1.88402e-12
1.14658e-11
-2.2107e-12
2.96665e-11
-4.00736e-11
-3.65222e-11
8.05546e-13
1.62471e-12
-3.53232e-11
1.76417e-12
-6.37008e-14
-8.10585e-12
-3.7797e-12
-3.13553e-12
4.15943e-11
3.9247e-12
-1.74422e-12
2.89271e-13
1.90955e-11
-8.39374e-12
6.88637e-12
-3.03735e-12
2.89279e-12
5.65308e-14
9.31496e-12
6.38592e-12
1.44643e-13
-2.90731e-13
-1.51916e-11
2.07301e-11
-4.66859e-12
0
1.47405e-13
-1.17383e-13
-4.03297e-12
1.65374e-12
-6.48637e-12
2.18932e-11
1.67627e-11
9.05971e-13
-5.72894e-12
5.74418e-12
1.57701e-15
3.73288e-13
-9.26538e-13
-1.45344e-11
4.46847e-12
0
3.77947e-13
1.78475e-13
2.29953e-14
-1.34039e-13
-4.61293e-13
4.01419e-13
7.3604e-13
-3.48078e-13
-5.96255e-13
4.47369e-13
-1.81076e-13
-9.57986e-12
-6.94228e-12
9.11395e-12
7.05701e-12
-7.22676e-12
-1.63157e-11
-1.76702e-12
7.15974e-12
2.97958e-12
-5.63084e-13
1.19163e-12
-2.81815e-13
-4.65331e-14
-2.72805e-13
-1.13976e-14
2.41604e-13
-1.69119e-11
6.55735e-12
1.56444e-11
1.31891e-11
-4.32137e-14
1.15909e-12
-2.59782e-11
3.57889e-11
8.98847e-13
3.50995e-13
2.11866e-12
-2.36163e-12
-1.04919e-11
-2.06446e-12
-5.20878e-11
-8.49559e-12
-9.61654e-12
-9.57475e-12
-1.16291e-11
7.9845e-13
-1.90239e-11
1.4506e-13
-9.72e-12
-2.33768e-12
-4.52886e-13
-1.20222e-11
5.80267e-13
1.45719e-13
1.437e-11
-2.06017e-11
-4.08065e-12
-2.18583e-12
6.79047e-12
1.5939e-11
3.3263e-11
-1.60907e-11
4.42909e-13
-2.83217e-12
-6.49147e-13
6.03678e-13
-1.50037e-11
1.4911e-11
-3.34952e-13
-1.44904e-11
3.41981e-11
-1.94729e-11
0
1.68552e-11
8.68199e-12
1.75019e-12
1.76293e-13
-1.8002e-11
6.69469e-12
7.83238e-12
-1.2062e-11
-1.33638e-12
3.43097e-12
-1.49254e-13
2.02264e-13
-1.43305e-13
-5.23801e-13
-1.4159e-13
-4.43121e-14
7.31859e-12
7.12218e-12
-7.90662e-12
-7.61319e-12
-3.13358e-12
-7.0124e-12
-1.07264e-11
1.00993e-11
8.89217e-14
2.16181e-13
-1.43899e-13
6.31676e-13
-8.60182e-13
-8.05957e-12
1.7332e-11
-3.10526e-12
1.69114e-11
-5.78388e-13
6.63177e-13
3.12006e-11
-5.27445e-14
2.80123e-12
4.80707e-13
4.44542e-13
0
-1.06164e-13
2.62572e-13
1.30471e-12
3.08239e-12
2.92715e-13
1.46523e-11
1.25783e-11
-1.32939e-11
-5.26907e-12
0
2.40098e-13
-8.38908e-13
-1.46326e-13
-1.46374e-13
1.32098e-11
1.09058e-11
2.73676e-13
1.5795e-11
-3.37652e-12
1.21498e-11
1.38359e-11
-1.43637e-13
-2.24918e-11
5.92877e-12
9.25503e-12
9.33683e-12
1.80891e-11
-3.82274e-11
2.003e-11
-6.25178e-13
3.76463e-13
-9.45031e-13
1.45766e-11
4.47937e-13
2.98556e-13
4.82834e-13
3.28764e-13
4.01926e-13
-5.80745e-13
-1.37716e-13
-8.79878e-12
-8.54202e-12
8.96208e-12
8.51025e-12
0
8.00402e-13
2.74578e-13
-1.06664e-12
-1.03418e-13
9.11408e-14
3.81435e-13
-1.13205e-13
-3.98657e-13
0
2.68667e-12
1.471e-11
1.19551e-12
-5.47987e-14
1.07771e-12
-1.59528e-12
5.94631e-13
3.75561e-13
-1.37274e-13
0
-3.71814e-12
1.90754e-11
2.708e-11
6.71146e-13
3.13855e-11
2.71676e-11
1.5503e-12
1.43642e-12
2.96095e-11
-1.33922e-12
3.40622e-12
-8.81573e-12
-2.25425e-11
1.60636e-11
-2.22313e-12
-3.84697e-12
2.00669e-12
-5.15009e-11
7.28432e-12
-4.73872e-12
2.95935e-13
9.66884e-13
-9.74126e-12
8.18052e-12
-2.51768e-12
0
3.71087e-13
2.12387e-11
-5.07573e-12
2.52026e-12
1.32399e-11
1.24454e-11
9.13738e-12
3.71216e-13
0
1.49303e-13
-1.65611e-13
-1.3906e-11
1.16964e-11
3.2286e-12
-1.56046e-11
1.44192e-11
7.90155e-13
-1.79625e-14
9.55869e-12
-9.99788e-12
2.84755e-12
1.30602e-11
-3.08724e-13
1.22015e-14
-5.78635e-14
5.68905e-12
-2.53582e-13
-5.35002e-12
0
6.69948e-12
7.79987e-12
9.23733e-13
-3.71776e-13
-7.90153e-13
1.96607e-14
1.65082e-11
3.41974e-13
-1.62858e-11
1.48878e-13
0
1.25791e-12
-1.60789e-13
-2.3707e-12
1.48326e-12
5.70892e-13
-1.94724e-13
3.15541e-13
-5.44403e-13
2.53064e-12
-5.05061e-12
2.62223e-11
-2.23866e-11
1.18913e-12
3.16683e-13
-2.54408e-13
-7.04858e-12
1.34373e-11
-1.30876e-11
0
-1.43835e-11
-2.80838e-11
1.6204e-11
5.36944e-13
-9.18068e-13
4.13543e-13
1.44424e-11
9.78713e-12
1.61047e-12
9.19674e-12
-1.30455e-11
-9.86343e-12
-1.30053e-11
2.38533e-11
-1.9939e-11
3.14213e-13
-1.49762e-11
-7.18872e-12
-1.42502e-13
3.11429e-12
2.96507e-12
-4.81375e-12
4.58761e-13
-7.40489e-13
2.2274e-12
1.75731e-11
-2.15486e-13
-2.70679e-11
1.81762e-11
-5.93258e-12
1.48309e-13
-1.52561e-11
2.21411e-11
1.02007e-11
7.9834e-13
2.22885e-13
-5.27111e-13
-8.81099e-12
-1.42191e-11
-2.81915e-12
-2.97167e-13
-2.27053e-11
2.51253e-11
-3.86596e-11
2.66626e-14
-4.81934e-12
-1.09114e-12
3.38151e-11
1.34002e-11
-2.22968e-12
-1.75669e-11
-3.11614e-11
1.39656e-11
-1.08006e-13
-1.77186e-11
1.81646e-11
1.20305e-13
-1.94725e-13
-5.25712e-13
2.08482e-12
2.97743e-13
2.15866e-13
2.30568e-13
8.2905e-12
-2.09308e-13
-3.45469e-13
7.7614e-14
-7.97431e-12
-5.96924e-13
-7.44531e-13
7.4233e-13
7.47344e-13
-1.90983e-13
-1.63372e-13
-3.43168e-14
9.3715e-12
7.22867e-12
-1.34841e-12
-7.20755e-12
-7.86868e-12
8.15967e-12
-1.91242e-14
-1.5616e-11
-1.17938e-11
7.60262e-12
1.12524e-12
-2.5068e-14
2.00603e-11
-5.2493e-12
-1.43928e-11
1.4814e-13
6.97893e-12
8.90597e-13
-1.84616e-12
8.82026e-13
-5.88236e-13
2.93845e-13
1.88104e-11
-1.93383e-11
2.51983e-12
-1.47983e-13
6.56431e-12
-5.27465e-12
-2.0206e-14
1.10698e-12
-8.87228e-13
2.94639e-13
1.40669e-11
-7.44285e-12
-5.9202e-13
6.80571e-12
-2.76679e-12
-8.19042e-12
-7.21379e-13
-3.23819e-12
1.0016e-11
-2.35549e-12
5.43138e-12
-5.16494e-13
-7.39871e-13
7.24993e-12
-2.84073e-12
-4.51252e-12
-4.88124e-14
7.63207e-12
-1.37222e-11
7.86111e-12
-5.20867e-12
-1.0183e-11
-8.87888e-13
1.48002e-13
-1.08067e-11
4.68827e-13
-1.59844e-11
-7.41494e-14
8.36067e-12
5.02448e-12
-6.17146e-12
-3.31969e-12
1.0954e-11
6.81547e-12
-1.80961e-12
-9.22035e-12
1.4896e-13
-9.20472e-13
9.67678e-13
2.57971e-13
-1.56893e-11
-4.5059e-12
-7.40945e-12
-1.48373e-13
-2.66575e-12
-1.44956e-11
6.9694e-12
-5.85134e-13
4.67361e-13
8.74543e-12
-5.59334e-13
-8.02025e-12
0
4.45377e-13
4.06431e-13
-3.48413e-13
7.81995e-12
6.61054e-14
-8.35612e-12
-2.83018e-13
3.46064e-13
6.53503e-14
0
4.44611e-13
1.70588e-13
5.7683e-13
4.07457e-13
6.39477e-12
-5.94062e-15
-1.35004e-11
2.86385e-13
6.3406e-12
-2.96402e-13
1.59968e-11
7.80555e-12
-8.97571e-12
-6.31408e-13
-2.5991e-13
-1.2586e-12
1.80509e-13
1.14439e-12
-3.70324e-14
1.48118e-13
7.69604e-12
-6.3419e-13
-6.49797e-13
7.85369e-12
2.68648e-13
-2.24634e-13
8.87745e-12
9.52928e-12
-7.02831e-12
-7.10461e-12
1.13899e-11
5.39138e-13
-1.12483e-11
-3.69392e-12
-2.64452e-13
3.30314e-12
8.29482e-12
-2.6142e-14
-8.25532e-12
-1.4792e-13
0
1.12565e-11
5.07682e-14
-1.14699e-11
8.50351e-14
-3.12764e-13
9.13179e-12
-4.94036e-13
-1.18169e-11
-2.07046e-12
-9.02221e-12
-2.58985e-13
8.92414e-12
4.18848e-13
2.08464e-13
-5.94174e-13
-1.16568e-12
-1.1294e-13
8.36491e-13
0
-9.31945e-12
-9.88565e-12
6.73034e-12
-2.8933e-13
-7.14368e-12
6.4219e-13
-7.65013e-12
-1.06061e-13
7.50246e-12
-2.95839e-13
-5.92027e-13
-5.15473e-13
6.73751e-12
-1.89613e-13
-1.43124e-11
-8.21272e-14
7.97875e-12
-2.41232e-15
-6.62449e-12
-6.51222e-12
0
-3.96147e-14
1.74743e-13
-9.49666e-14
-1.15804e-13
8.56835e-12
-1.88658e-13
-8.46479e-12
1.30846e-13
-1.4812e-13
-1.92655e-12
7.38539e-12
9.53596e-12
-3.14531e-14
-2.16714e-13
1.60748e-14
3.68466e-13
-9.63062e-14
4.62847e-14
1.482e-13
2.96112e-13
-4.67917e-14
-8.81423e-12
7.13261e-12
8.68262e-12
-6.7754e-12
-2.60838e-13
7.62631e-12
-2.46303e-14
-7.69868e-12
-5.92027e-13
-1.18046e-11
-1.0873e-11
6.00512e-13
-5.45583e-13
8.86844e-14
8.50774e-13
6.18234e-13
6.15403e-12
6.21615e-12
-5.91781e-13
-3.80672e-13
-1.90893e-14
7.07258e-15
-1.0709e-13
-1.62056e-13
-3.16789e-14
5.97135e-14
7.60239e-12
7.24916e-12
6.95151e-12
6.85702e-13
-7.02566e-12
-1.08248e-12
1.6217e-13
4.61629e-13
-4.13004e-13
1.56998e-13
-7.43766e-14
-1.47892e-13
2.95779e-13
8.33771e-14
-1.64585e-13
1.16444e-13
-6.69799e-12
-1.58031e-13
6.73143e-12
-1.804e-14
-5.05326e-12
-4.87976e-12
3.40143e-12
-6.86036e-12
-2.99548e-12
7.98867e-12
-7.13105e-12
-2.04581e-13
6.46387e-12
3.47796e-14
3.2187e-13
-1.47868e-13
-7.09931e-12
-7.57162e-12
-4.85489e-13
1.01257e-12
6.06522e-13
7.50206e-12
6.90328e-12
-1.56404e-11
-6.90379e-12
7.68997e-12
0
-6.11426e-13
1.36743e-14
7.45652e-13
4.45216e-14
-2.2761e-13
2.61846e-13
-3.12747e-14
-1.34476e-13
0
0
-5.48483e-14
-4.67585e-13
-7.42504e-12
5.57616e-13
7.77835e-12
-6.51994e-14
-3.40525e-13
1.13803e-13
0
5.32964e-12
-8.42279e-12
-7.01992e-12
8.1658e-12
9.70064e-12
6.31547e-12
-9.79371e-12
-7.22524e-12
-6.4293e-14
1.4804e-13
5.91907e-13
7.70176e-12
1.53261e-13
-7.26175e-12
-7.31389e-12
3.1915e-13
1.75503e-11
-6.83014e-13
-1.01361e-11
0
0
2.71149e-13
1.67085e-14
3.10854e-14
-2.3153e-13
-2.79468e-13
5.10439e-13
6.32004e-14
-5.1404e-13
0
-7.39597e-12
-7.96731e-12
-1.02162e-12
-4.26505e-13
5.13737e-13
4.96406e-13
-9.02225e-12
-1.084e-13
8.90708e-12
0
1.47897e-13
9.76306e-12
4.14945e-13
-8.88253e-12
-1.64523e-13
-1.50254e-12
-1.67589e-13
4.44658e-13
-2.19836e-14
-1.47881e-13
-4.43663e-13
5.29256e-14
2.32257e-13
5.08608e-13
8.39412e-12
-3.77398e-13
-8.58236e-12
-1.0392e-11
-9.11744e-12
1.03507e-12
6.50716e-12
-3.90984e-14
-2.37451e-13
7.12528e-12
4.08264e-13
9.93738e-14
-5.87538e-13
1.10595e-13
-5.08202e-14
0
-8.13433e-12
-1.74823e-11
-2.54203e-13
9.2505e-12
4.05512e-13
-8.83538e-14
-2.77185e-13
-9.69027e-12
-1.05214e-14
9.61164e-12
-1.47913e-13
-9.87053e-12
-8.64248e-12
9.76294e-12
8.16141e-12
2.1828e-13
2.42957e-13
-6.36998e-13
2.57364e-13
5.91577e-13
-7.84101e-12
-7.61896e-12
1.1924e-13
-1.39011e-13
-1.14146e-13
-3.18064e-14
-9.11363e-12
1.79835e-13
8.98629e-12
0
1.47969e-13
-1.33588e-13
2.87526e-13
5.16652e-14
-6.69721e-13
-1.98209e-13
5.67355e-13
8.18525e-14
-2.8405e-13
-2.95913e-13
-8.13616e-12
-5.93177e-13
7.53808e-12
1.44463e-13
2.64437e-18
-2.40494e-13
3.55826e-13
1.54856e-13
-9.50576e-14
0
-2.95833e-13
4.36565e-14
-1.83114e-12
-2.6882e-13
2.24866e-12
-1.19647e-13
1.57874e-13
3.46454e-14
-3.26041e-14
1.47904e-13
7.0991e-12
6.94363e-14
-7.09046e-12
9.4266e-12
7.11831e-13
-1.12646e-12
-1.73567e-12
-8.43439e-12
1.01223e-11
9.16892e-12
0
-7.21963e-12
-8.19917e-14
7.36732e-12
5.30003e-13
8.92895e-14
-9.13237e-12