/*--------------------------------*- C++ -*----------------------------------*\
  =========                 |
  \\      /  F ield         | OpenFOAM: The Open Source CFD Toolbox
   \\    /   O peration     | Website:  https://openfoam.org
    \\  /    A nd           | Version:  10
     \\/     M anipulation  |
\*---------------------------------------------------------------------------*/
FoamFile
{
    format      ascii;
    class       volScalarField;
    location    "0.7";
    object      gradTz;
}
// * * * * * * * * * * * * * * * * * * * * * * * * * * * * * * * * * * * * * //

dimensions      [0 -1 0 1 0 0 0];

internalField   nonuniform List<scalar> 
46825
(
1.49086e-13
0
-1.48932e-13
2.0969e-11
4.45697e-13
-1.54509e-11
1.48719e-12
2.23406e-11
2.98155e-13
1.72956e-11
5.96213e-13
-1.4893e-13
1.48581e-13
-2.14633e-11
1.49122e-11
1.47648e-13
-4.44079e-13
2.21392e-11
-2.97867e-13
-7.45312e-13
-1.78685e-11
0
-3.82582e-11
-2.28283e-11
-2.90893e-13
-5.81788e-13
-1.46336e-13
-1.4624e-11
-7.42861e-13
-5.95649e-13
-4.46072e-13
0
-7.46288e-12
2.66341e-11
5.55747e-12
5.41497e-12
-5.7587e-13
-3.17537e-11
0
-5.94772e-13
1.73804e-11
2.95287e-13
-1.41092e-11
-2.8502e-13
6.19025e-12
-6.19022e-12
-1.42508e-13
-2.99635e-11
1.62405e-12
-1.18838e-12
-1.72339e-11
1.4767e-13
-3.4045e-11
0
5.90968e-12
-2.60306e-11
1.65343e-11
0
1.47664e-13
2.97125e-13
-1.04116e-12
4.44236e-13
-1.33254e-11
-2.27611e-11
8.2681e-12
-1.85318e-12
9.2194e-12
6.00361e-12
4.44217e-13
-8.92385e-13
-4.46889e-13
0
-2.95663e-13
-1.85976e-11
-1.23684e-11
-2.91023e-13
-2.92875e-13
2.39489e-11
-2.8243e-11
2.97917e-13
-6.85861e-12
-1.48984e-13
1.63512e-11
-1.48082e-13
-1.47687e-12
1.71318e-11
4.44253e-13
-1.88787e-11
0
5.96405e-13
0
2.98193e-13
1.48959e-13
7.43695e-13
-1.04007e-12
1.48584e-13
5.94981e-13
1.19174e-12
0
-1.81934e-11
2.37224e-11
-1.49346e-13
2.16537e-11
2.19377e-11
-2.98375e-13
-1.58138e-11
2.76087e-11
6.1229e-12
-1.49359e-13
0
-2.28453e-11
1.12218e-13
1.53447e-14
1.96407e-12
5.77721e-12
1.7034e-12
1.44593e-14
2.76091e-11
-3.74075e-13
-7.46658e-13
-1.31374e-11
7.56887e-14
3.57565e-12
-2.31323e-11
2.95805e-13
-3.22293e-11
2.95934e-13
1.21801e-11
-4.77665e-13
-2.98595e-13
2.20807e-11
6.89425e-12
0
5.79702e-11
2.90624e-13
1.16147e-12
-6.11521e-12
-2.47474e-11
-5.3275e-12
2.19319e-11
1.77498e-11
1.16387e-11
4.34791e-11
-8.71846e-13
2.87475e-13
-2.87087e-13
8.65041e-13
-4.48623e-11
-4.41961e-13
-2.89363e-11
-1.7304e-11
1.30117e-11
-1.21231e-11
3.5426e-11
-1.20578e-11
-2.58007e-11
2.88005e-13
0
7.48602e-13
-1.49166e-13
-8.95413e-13
-3.65929e-11
-1.27291e-11
-2.24322e-11
5.76776e-13
-2.01606e-12
-9.83296e-12
3.17175e-11
6.56763e-12
-4.47681e-13
-4.4803e-13
2.7314e-12
-1.21865e-11
-1.70999e-11
8.79877e-13
-3.89786e-11
-3.55363e-11
2.42679e-11
1.39031e-11
1.58298e-11
1.4936e-13
-1.12246e-13
6.82988e-12
6.44286e-12
5.28277e-13
-6.36422e-12
-7.18747e-12
-9.91572e-13
6.54792e-12
8.96163e-13
0
-4.48054e-13
1.49332e-13
8.9537e-13
1.49176e-13
1.95425e-11
-1.49238e-13
4.48038e-13
0
1.49229e-13
4.4749e-13
-1.96062e-11
9.62996e-13
-7.8731e-14
-2.39585e-13
1.61982e-11
1.56088e-11
-1.6495e-11
1.08948e-12
-1.65602e-11
-3.33426e-11
0
0
2.60194e-11
5.99506e-12
-4.49882e-12
-4.64045e-11
-4.59965e-11
0
-2.82036e-13
2.35694e-13
-2.98736e-13
-4.8132e-11
-2.93634e-11
6.08833e-13
2.83584e-11
-1.0927e-11
9.07644e-12
-3.00317e-13
-1.99397e-11
3.87208e-12
-1.34552e-11
1.72542e-11
4.0653e-06
2.96744e-06
3.02173e-06
2.73757e-06
2.5867e-07
9.03535e-13
2.77283e-13
-9.77858e-14
-2.997e-13
-5.02213e-11
2.9656e-06
-6.09614e-06
-6.25303e-06
-5.33991e-06
3.17395e-07
6.95815e-12
-1.71447e-11
-1.7303e-11
3.41847e-11
7.3161e-12
3.02112e-06
-6.24928e-06
-6.4195e-06
-5.44948e-06
3.20165e-07
3.36156e-11
1.75249e-11
-6.88171e-14
-7.78278e-12
-1.00173e-11
2.90034e-06
-5.31425e-06
-5.44715e-06
-4.62669e-06
3.08063e-07
-1.29823e-11
9.19429e-14
2.54469e-13
1.1946e-12
7.26627e-12
9.00245e-08
3.1593e-07
3.19895e-07
3.08107e-07
3.69282e-11
2.94651e-11
-1.60427e-12
6.67752e-12
2.98392e-13
4.56541e-11
7.53112e-12
-5.68695e-11
-2.24088e-11
3.01918e-11
3.6683e-11
2.99101e-13
-4.01203e-13
-4.47513e-13
-1.88858e-11
-1.16188e-13
-8.84483e-14
7.24945e-13
2.2526e-13
-3.9383e-13
1.51976e-11
1.9106e-13
1.86484e-11
-2.39581e-11
-8.67199e-14
-1.89273e-12
2.34203e-11
2.49591e-11
2.70703e-13
-6.66963e-12
1.42773e-13
1.89942e-11
1.48854e-13
2.27313e-11
2.97015e-13
-1.94244e-13
-1.70606e-10
-2.74621e-10
-2.39342e-10
-1.64509e-10
-5.00456e-12
3.56197e-11
-2.13993e-13
-1.17896e-13
-2.32132e-12
7.35288e-09
-1.02003e-05
-1.02884e-05
-1.00239e-05
-1.02754e-05
-1.12412e-05
5.5792e-11
-1.7496e-11
-2.17807e-11
-1.85897e-10
-1.18034e-05
-225.027
-293.312
-293.944
-292.419
-0.691356
2.80403e-08
-3.97363e-11
2.40885e-13
-2.52694e-10
-1.02407e-05
-293.308
-405.594
-407.086
-403.312
-1.50189
-2.27319e-08
2.79266e-11
-1.76496e-11
-2.57362e-10
-1.01401e-05
-293.921
-407.071
-408.654
-404.708
-1.50834
-1.46537e-08
2.48283e-11
4.8875e-13
-2.32929e-10
-1.02766e-05
-291.407
-403.166
-404.697
-400.779
-1.49565
-3.88872e-08
-3.50057e-13
-2.44633e-13
-5.88491e-11
-1.12177e-05
-0.227213
-1.49808
-1.50813
-1.49558
-0.211195
5.76379e-08
-1.66532e-11
-1.63629e-11
2.96711e-13
3.49715e-11
4.05505e-08
-1.99501e-08
-1.51341e-08
-3.66082e-08
5.81448e-08
3.53937e-11
-1.98829e-11
-1.33927e-12
7.03106e-13
-1.7546e-11
2.4233e-13
7.22262e-12
-1.91371e-11
7.13001e-13
3.76165e-12
-1.77992e-13
1.3395e-11
0
2.94094e-12
1.91857e-11
5.1684e-13
4.08391e-13
-1.57258e-11
-1.51858e-11
1.53987e-13
-1.13754e-12
2.97342e-13
5.43001e-11
2.96347e-13
3.89481e-11
2.65917e-09
5.51122e-09
5.4443e-09
5.34754e-09
-1.36213e-10
-3.58542e-11
5.9415e-14
2.35549e-13
4.44558e-12
7.2863e-09
-0.0023274
0.0193301
0.019566
0.019045
-0.000108878
2.28767e-09
2.03409e-11
-3.85222e-12
1.76713e-09
0.0094994
5.43999e-06
-1.92724e-11
7.28306e-13
5.50631e-09
0.0193398
1.54342e-05
4.14502e-11
1.77993e-11
5.39281e-09
0.019499
1.57715e-05
2.56341e-12
-1.68466e-11
5.38361e-09
0.0190428
1.46309e-05
-1.61537e-11
-2.39643e-14
-7.95454e-11
-9.92163e-05
-3.98244e-07
-1.28431e-11
-3.02282e-11
-8.88475e-13
2.55099e-09
9.5703e-06
1.55837e-05
1.58205e-05
1.46112e-05
-3.96634e-07
-3.42659e-11
2.62155e-13
4.4586e-13
3.34469e-11
-2.12326e-11
-9.42453e-14
1.0779e-12
1.28132e-12
4.53948e-13
-3.79916e-11
-1.65986e-11
1.69461e-11
-1.63531e-11
-1.65193e-11
6.3773e-12
-2.40354e-11
-2.41932e-11
-1.07123e-13
-4.21343e-11
-2.64581e-13
-3.53852e-11
0
2.52297e-11
-2.97272e-13
-3.60148e-11
3.47404e-10
1.31912e-09
1.27202e-09
1.23219e-09
-3.24847e-11
3.75099e-11
-6.03794e-14
-4.38609e-12
1.7372e-13
-6.59072e-09
0.000462294
0.00062591
0.000627415
0.000624616
-7.92754e-06
3.35445e-10
1.61399e-11
2.17941e-11
3.22184e-10
0.000284915
2.25288e-06
1.79133e-11
1.92593e-13
1.23872e-09
0.000626487
1.17699e-06
2.72368e-13
1.78734e-11
1.26484e-09
0.000627398
1.08856e-06
-2.43466e-11
-1.07287e-12
1.20091e-09
0.000624698
9.10877e-07
5.25931e-13
-4.46748e-13
3.2924e-11
-3.21027e-06
-2.53761e-08
2.20725e-12
1.64634e-11
-2.97733e-13
2.74233e-10
5.62597e-07
1.03223e-06
1.0888e-06
9.10757e-07
-3.12847e-08
-3.42467e-11
1.90605e-11
8.92018e-13
-5.98642e-13
4.00929e-11
4.74416e-15
-3.02967e-11
-6.55365e-13
-1.37721e-13
2.90773e-12
-6.6757e-14
-1.33827e-11
1.48749e-13
4.33266e-11
-2.02693e-11
-2.92109e-13
5.25336e-13
-2.29854e-13
-7.27355e-13
-2.02425e-11
1.93944e-11
-1.48796e-13
-2.11992e-11
3.30537e-11
1.67449e-12
9.71694e-11
3.28261e-10
3.29423e-10
3.5471e-10
-1.18596e-12
-3.63991e-11
3.70087e-13
-2.12819e-11
1.41573e-12
-1.13905e-08
0.000113107
0.000211315
0.000141184
0.000210762
-3.8933e-06
1.16461e-10
4.20479e-13
9.27995e-13
5.47162e-11
0.000111566
1.39711e-07
2.00499e-11
-1.6732e-11
3.16515e-10
0.00021149
1.89497e-07
-2.40587e-11
7.60095e-14
3.0069e-10
0.000211481
1.37314e-07
-1.97009e-11
1.82535e-11
3.38903e-10
0.000210653
-5.11384e-08
1.60042e-11
1.83942e-13
-2.45724e-11
-1.22852e-06
8.36201e-09
1.32076e-11
3.01732e-11
5.96655e-13
-6.54369e-12
8.27497e-08
1.17651e-07
1.52336e-07
1.23785e-07
-5.50214e-09
3.46304e-11
-4.16e-13
1.48761e-13
-3.36526e-11
1.7417e-11
1.02453e-13
-2.7283e-11
-4.10134e-13
-5.30818e-13
2.23361e-11
1.70983e-11
-1.75571e-11
3.86942e-11
1.70753e-11
-2.63086e-11
2.11688e-11
1.86139e-11
1.88665e-13
4.55244e-11
9.47559e-13
1.6237e-11
-5.95465e-13
-2.45841e-11
-3.90368e-11
1.65247e-12
1.7572e-11
9.04602e-11
5.18647e-11
5.93538e-11
-7.49482e-12
-1.49282e-12
-7.95514e-13
-1.81897e-11
-2.67262e-13
3.36448e-09
5.62765e-05
0.000211917
7.14108e-05
0.000141281
-4.77162e-06
4.93361e-11
4.18403e-13
-4.09297e-12
3.04503e-11
1.57975e-06
-1.62805e-08
-3.34646e-13
-1.56624e-13
1.10648e-10
0.000211796
-4.86432e-08
-1.08364e-13
1.65718e-11
1.34768e-10
7.14151e-05
-5.40611e-08
-1.7408e-11
5.29913e-13
6.7823e-11
0.000211214
-1.1637e-06
-2.82908e-11
1.09987e-13
-4.0494e-11
-1.71159e-07
2.2102e-08
-1.04047e-12
5.16109e-14
-5.97294e-13
1.39158e-11
-4.70468e-08
1.92355e-08
-3.90779e-08
-1.57279e-08
-1.91771e-09
-3.01287e-13
1.76509e-13
2.97672e-13
1.74077e-13
-6.394e-12
-1.84476e-13
2.3707e-11
4.14942e-13
-4.39781e-13
-6.80462e-12
1.79313e-11
-1.48862e-13
-2.97761e-13
-2.66798e-11
3.67831e-14
2.14492e-14
1.6986e-11
-2.41667e-13
4.40016e-13
2.0209e-11
-1.9417e-11
1.48922e-13
-4.38883e-13
5.66327e-12
-1.72399e-12
-1.16267e-10
-5.67084e-10
-5.2451e-10
-5.1081e-10
1.00308e-11
2.09035e-12
2.50678e-13
2.13078e-11
-3.35803e-11
1.91252e-09
-0.000114248
-6.59041e-05
-0.000136269
3.97992e-06
-4.81229e-06
-1.55994e-10
-8.5509e-13
1.5586e-11
-9.42764e-11
-0.000116169
-5.22455e-07
-1.3572e-13
1.69558e-11
-5.57633e-10
-6.5908e-05
-1.00768e-06
-6.80854e-13
-3.81028e-13
-6.05588e-10
-6.61484e-05
-1.03132e-06
5.51196e-13
-2.06029e-11
-5.08992e-10
-6.55744e-05
-4.63173e-08
-1.33089e-13
1.40123e-13
5.52758e-12
3.40073e-07
-1.82076e-07
-7.36144e-14
-5.21576e-14
-3.22562e-11
-1.77693e-10
-4.92161e-07
-1.03328e-06
-1.02888e-06
-8.85215e-07
2.02764e-08
-6.09538e-13
-6.55082e-13
-1.48893e-13
1.83163e-11
3.33866e-12
-2.38568e-11
2.57147e-11
1.41702e-12
7.58946e-13
-2.72455e-11
-5.58177e-13
1.48915e-13
-5.06334e-12
-2.53023e-11
-7.86231e-14
-2.08716e-11
-1.84326e-11
2.12634e-14
2.4515e-12
-5.40985e-13
-2.78974e-13
5.95841e-13
2.18783e-11
3.27886e-12
-1.20529e-12
-1.41049e-10
-3.833e-10
-2.65847e-10
-5.74413e-10
3.20736e-11
-1.4929e-12
1.08384e-12
1.83682e-11
3.30172e-11
1.59402e-09
-0.0062487
-0.0146068
-0.014838
-0.0145153
4.16435e-05
-3.7633e-10
3.89998e-13
-1.6444e-11
-1.589e-10
-0.0063594
-6.946e-06
1.67228e-11
-8.56146e-14
-3.6213e-10
-0.0146067
-1.15797e-05
-1.7519e-13
-1.7101e-11
-2.54069e-10
-0.0148376
-1.1757e-05
1.71865e-11
-1.75413e-11
-5.78744e-10
-0.014375
-1.0656e-05
2.82076e-11
3.85797e-13
2.32922e-11
4.8946e-05
1.71906e-07
2.31505e-13
-2.8602e-14
3.28524e-11
-4.2228e-10
-6.95181e-06
-1.16038e-05
-1.17573e-05
-1.07864e-05
1.78381e-07
-6.02323e-13
9.20532e-13
0
2.60776e-13
-1.6802e-11
6.74418e-13
3.55605e-13
-1.00989e-11
-1.53097e-13
-5.8049e-13
-1.8009e-11
7.44784e-13
-2.97885e-13
6.50322e-13
-2.85292e-14
-4.46687e-13
9.46072e-12
1.75111e-11
1.33242e-13
1.88835e-11
-1.69837e-11
-1.63864e-12
-1.08488e-12
-4.17323e-11
-1.66579e-13
2.90584e-11
-4.20735e-11
2.59147e-11
-4.22983e-11
-8.61129e-14
1.79157e-12
-5.33396e-13
-2.3847e-13
-4.48611e-11
-1.00428e-09
4.57283e-05
4.04116e-05
4.05808e-05
4.06436e-05
4.19985e-05
5.32484e-10
4.61605e-13
-1.65366e-11
-4.60771e-11
4.5322e-05
-3.94722e-08
-1.93109e-11
2.22465e-11
-2.29471e-11
4.04262e-05
-4.74978e-08
1.84973e-13
3.76361e-13
-6.47828e-12
4.06766e-05
-4.73031e-08
-6.86271e-13
1.97575e-11
-2.64339e-12
4.08242e-05
-4.76249e-08
-1.93394e-11
2.51803e-11
1.77669e-13
4.22307e-05
7.41378e-09
-1.75904e-11
2.13937e-13
-1.19412e-12
5.04794e-10
-3.94865e-08
-4.75573e-08
-4.73643e-08
-4.77539e-08
7.43939e-09
3.31226e-11
1.65746e-13
2.97907e-13
9.87372e-13
2.00978e-13
2.33236e-11
7.94407e-13
-1.39442e-12
-1.07001e-12
2.74797e-11
-2.22879e-11
1.48964e-13
-1.72775e-11
-1.4334e-11
1.911e-13
-8.05891e-14
-1.65925e-11
1.55324e-11
-2.55677e-11
1.8457e-13
-1.27358e-13
0
-2.20296e-11
3.90561e-11
1.44116e-12
-3.77645e-11
3.63272e-11
-3.40108e-11
3.33528e-11
5.63088e-13
-4.41986e-11
-6.46187e-14
-3.96239e-14
4.48703e-11
-6.11983e-13
-5.79988e-13
1.17621e-12
-8.24601e-12
6.92912e-11
-2.69596e-13
5.95144e-12
-6.48638e-14
-6.13806e-13
3.51283e-11
-7.71476e-11
1.56101e-12
-1.64547e-11
-1.74965e-13
0
-2.3523e-11
-4.11388e-13
-5.33822e-13
-1.38156e-13
5.86377e-13
-7.00907e-11
-1.10197e-13
1.45675e-13
1.72344e-11
3.74481e-11
2.34885e-12
1.4158e-12
1.77536e-11
-2.91595e-13
-2.44325e-13
7.50758e-13
-9.05959e-12
-2.50661e-11
1.72406e-11
5.97279e-13
-1.4389e-11
9.95121e-13
5.18915e-11
4.77766e-11
4.36726e-11
2.63408e-11
-3.22378e-11
-1.43818e-12
1.74266e-11
8.60711e-14
-1.90431e-11
2.55742e-13
1.70814e-11
2.6101e-11
5.27292e-14
1.777e-12
4.16483e-13
-1.04268e-12
-5.95738e-13
-2.24059e-13
-1.23725e-14
-4.46099e-13
-3.97246e-11
-1.75428e-11
7.98177e-13
-1.37221e-12
3.95615e-11
1.19154e-12
7.88823e-13
3.63766e-11
-2.45384e-13
-3.27812e-11
2.9284e-13
8.79252e-13
-2.92454e-13
-4.53704e-13
4.24132e-11
2.30277e-11
2.26718e-13
1.65731e-13
-1.31631e-10
6.57784e-13
-2.41077e-12
5.90816e-13
-1.76641e-12
1.41473e-12
1.65027e-11
9.63394e-14
-4.41149e-14
-1.17076e-12
1.80401e-10
-3.64884e-11
3.51923e-11
-4.14231e-11
2.92826e-13
-6.39953e-11
-2.89047e-13
2.2681e-13
-5.86474e-14
-2.93069e-13
-1.77244e-12
4.4759e-11
-9.03311e-15
1.97905e-13
-3.74332e-11
-1.1776e-12
1.31601e-12
3.73269e-11
-2.57265e-11
-3.16143e-13
-2.14139e-12
3.45931e-11
1.76566e-11
1.98189e-11
2.38939e-12
-3.47057e-12
-1.3351e-12
3.0163e-13
-2.16125e-13
-6.50193e-11
-2.62757e-11
-3.01411e-13
-2.34658e-13
0
-9.08319e-13
3.96275e-13
3.83381e-13
-8.99469e-13
-4.47759e-13
-2.13822e-11
2.00278e-11
2.50167e-11
5.95761e-13
-4.02105e-12
3.90802e-11
3.86963e-13
6.32311e-13
3.96623e-11
-1.55173e-11
1.55967e-11
4.72546e-13
-1.11229e-13
2.01058e-11
2.71297e-13
-3.66742e-11
-2.9957e-13
3.83468e-11
-3.25112e-11
5.86273e-13
-2.92488e-13
7.9387e-13
1.19482e-12
-5.13873e-13
-2.478e-11
-6.52568e-13
6.12329e-13
-4.45416e-13
-1.16696e-13
0
-1.23673e-11
1.12524e-13
-5.44987e-12
-2.5442e-13
3.3033e-12
5.85425e-13
2.15574e-12
6.15976e-11
8.26817e-14
8.14186e-14
5.85745e-13
-1.33571e-12
8.58627e-14
-3.38648e-14
2.55377e-11
-5.86243e-13
5.9099e-13
-4.49369e-11
-8.97442e-14
3.14381e-13
-2.92489e-13
9.48157e-11
-1.47548e-12
-1.77615e-11
2.77556e-13
-3.61887e-13
2.94472e-13
-3.4547e-11
4.0994e-11
-3.54858e-11
-2.38955e-12
-1.30939e-12
-2.04391e-14
2.90861e-13
4.96494e-13
2.13178e-11
3.11065e-11
0
-1.54821e-11
-1.83182e-11
-8.50781e-14
1.91174e-11
-2.07463e-11
-1.70015e-11
9.32436e-12
1.56783e-13
-9.67715e-13
9.075e-14
0
2.97866e-13
-2.74444e-13
-6.31573e-14
4.15712e-13
1.25143e-11
-1.04893e-13
-2.4612e-12
-1.79627e-11
-2.22225e-11
1.6681e-11
1.73852e-11
5.96263e-13
5.31844e-13
-5.85387e-13
3.25056e-11
-8.79256e-13
8.77348e-13
2.50481e-13
-1.31412e-11
-3.88153e-11
-1.77543e-11
4.26065e-11
1.83689e-12
-3.96062e-13
-6.85433e-11
1.6547e-11
-5.88888e-13
7.64486e-11
-3.24862e-11
1.35059e-13
-2.02722e-13
-3.95128e-11
2.38139e-12
6.4296e-12
-1.59834e-11
1.82202e-11
-4.27543e-11
-8.15642e-11
-8.44068e-13
2.91359e-13
9.64181e-14
2.93075e-13
-5.90961e-13
1.812e-13
-3.91453e-13
1.7406e-11
5.84888e-13
-1.00111e-10
-2.89918e-13
-1.78221e-11
2.00034e-13
4.00963e-11
7.5778e-11
-4.66318e-11
-1.6458e-13
-2.24721e-12
1.34394e-11
-4.58205e-11
-4.68798e-11
4.51399e-13
-6.98989e-13
4.84363e-11
-3.15702e-11
0
-5.55322e-13
7.44655e-13
3.0132e-11
9.12924e-13
-1.52925e-13
-2.3938e-11
-1.2295e-13
2.22013e-11
-1.94587e-11
2.30321e-11
-5.95741e-13
3.87245e-12
6.54662e-13
5.80618e-13
-2.07792e-11
-2.31022e-11
3.13403e-13
-1.59764e-11
-2.69955e-13
4.32913e-13
-1.95124e-11
3.1905e-13
-5.96164e-13
1.5252e-13
3.16061e-11
1.46417e-12
4.22024e-11
2.92441e-13
-9.77254e-14
1.1943e-11
8.61176e-15
2.46757e-11
-4.20142e-11
2.6321e-11
-6.64873e-11
5.54019e-13
0
5.88424e-13
3.57964e-12
3.14935e-11
-2.53475e-13
-2.91689e-12
4.00921e-11
9.4331e-11
-3.09183e-11
-1.15905e-13
9.53133e-14
4.0995e-11
4.55135e-13
-8.6361e-13
3.08283e-14
-2.56824e-11
8.79208e-13
9.91848e-11
1.13631e-12
-1.96854e-13
2.60816e-13
-5.84861e-13
-2.94186e-12
-7.56788e-13
-3.63656e-14
-4.35344e-13
-4.03473e-11
-2.86134e-12
9.92129e-11
-1.5838e-11
1.83391e-11
-5.07571e-12
4.67897e-11
4.75446e-11
-8.58676e-13
3.76185e-13
-1.52995e-11
4.68936e-11
3.01239e-13
-3.85513e-13
2.97895e-13
-1.79436e-13
-2.13189e-13
2.05613e-11
-6.33519e-14
-2.55203e-11
2.81018e-11
1.97787e-11
8.39648e-14
-7.44742e-13
-1.48961e-13
-1.32544e-13
-6.38206e-14
-1.2066e-12
-6.75128e-14
-1.32256e-13
2.25829e-12
8.3909e-15
-5.41233e-13
-1.74312e-11
-1.18771e-12
2.98052e-13
3.72715e-11
-3.13771e-11
-3.76142e-11
-4.20583e-11
1.17351e-12
-8.82634e-13
4.32796e-11
2.98195e-11
4.839e-12
-5.8035e-13
2.43961e-12
0
5.90844e-12
9.11139e-11
5.07503e-11
-3.11285e-12
-3.13143e-11
2.70217e-13
1.68676e-14
0
8.41967e-11
-1.84968e-12
-1.66765e-11
8.40239e-14
1.46926e-12
5.90829e-13
-3.59412e-11
2.7214e-13
-3.07888e-13
-6.76452e-12
-1.18332e-12
-3.64247e-11
5.18841e-13
-1.71101e-11
-8.80182e-13
7.37673e-11
-3.09613e-11
-1.80195e-11
-3.29321e-13
2.94237e-13
-1.44542e-12
-5.28752e-11
-2.35767e-13
-1.74521e-11
-8.0591e-12
-1.83928e-12
1.53717e-13
-6.16057e-13
4.61413e-14
-3.31527e-11
-4.8476e-11
-6.01805e-13
1.43585e-13
-2.97959e-13
-6.02653e-11
-1.01518e-12
1.23848e-13
2.46976e-11
4.10818e-13
5.7245e-13
-2.46958e-13
-5.54258e-11
1.48985e-13
1.48966e-13
1.93659e-13
-3.99648e-13
2.11261e-11
-1.57364e-13
5.36266e-13
1.60925e-13
2.72253e-14
1.12492e-13
2.98006e-13
4.50563e-15
5.96355e-13
-3.75823e-11
2.93495e-13
3.64456e-11
2.94175e-13
-4.02054e-11
-4.54357e-11
-4.18229e-11
-2.32725e-11
3.35388e-14
1.17615e-11
6.13733e-13
5.01971e-12
2.88603e-13
1.31211e-12
-1.03929e-12
-6.44328e-11
1.1912e-11
-1.77976e-11
-2.8235e-13
-2.93414e-13
1.21169e-12
-1.61797e-13
-2.10101e-11
-9.83086e-13
0
-6.66124e-11
7.05255e-11
7.04706e-15
-3.31851e-13
7.35384e-12
7.02844e-11
3.5945e-11
-1.70386e-11
-6.30513e-14
1.17385e-12
1.91582e-12
3.08076e-11
-4.70528e-12
-1.61437e-13
4.41747e-11
-5.60524e-15
3.08861e-14
5.69782e-13
-2.00927e-11
-5.97488e-13
1.96058e-11
-6.02901e-13
9.05195e-13
-1.09595e-13
2.52347e-11
3.03379e-12
3.01422e-13
3.23551e-11
2.11581e-11
1.78915e-11
-2.2872e-14
2.30767e-11
1.6062e-13
-1.6071e-11
-2.84869e-11
-3.75695e-11
4.18005e-14
2.19031e-11
5.95812e-13
-1.11595e-13
1.93977e-11
8.31037e-13
2.97805e-13
2.18015e-13
-4.68816e-13
-4.8806e-14
-2.9245e-13
1.48993e-13
-1.70698e-11
3.96569e-11
-4.19392e-11
4.97984e-11
0
0
7.92655e-11
4.65576e-11
-8.06535e-12
-1.34142e-11
1.58758e-11
-1.28864e-11
3.06805e-12
8.65167e-11
-5.88765e-13
5.89762e-13
-5.87928e-13
-6.37867e-11
8.83475e-11
-1.391e-12
1.3452e-13
5.85656e-13
5.27946e-12
-5.5936e-13
3.87899e-11
2.19043e-13
-3.3673e-11
5.88753e-13
-3.35107e-11
4.32236e-13
2.8771e-13
-5.86148e-13
2.35902e-12
-3.04092e-13
-6.47838e-13
2.03474e-13
-2.9247e-13
6.46719e-12
-5.96041e-13
1.106e-11
2.33349e-13
-4.46719e-11
5.92197e-11
4.89713e-11
9.381e-14
1.47184e-13
-8.96187e-13
2.25336e-13
-3.40285e-11
5.35833e-11
2.03358e-14
-2.51595e-11
-1.23615e-13
-1.20555e-12
4.3336e-13
-2.97991e-13
3.01038e-11
1.7016e-11
-2.42966e-11
1.03268e-13
-3.73128e-12
-4.22059e-13
-2.62744e-11
5.69056e-12
1.49e-13
0
-7.49941e-13
5.25553e-15
-2.16394e-11
1.64641e-11
-2.02017e-11
-3.87374e-11
-4.5026e-13
-5.08594e-13
1.81785e-11
-2.94292e-13
-4.02528e-11
4.29294e-11
-4.92148e-11
0
0
-3.97761e-11
-2.9424e-13
7.76715e-12
4.34833e-11
-2.79439e-13
1.11566e-12
3.68293e-12
1.15379e-12
-1.9462e-11
-7.09085e-11
-7.53722e-11
4.62951e-12
7.37435e-11
1.20459e-13
3.97765e-12
2.92839e-13
7.93907e-12
-5.62127e-13
2.05398e-11
-5.54776e-14
3.33777e-11
-1.22876e-12
3.79869e-11
-1.12793e-13
9.81117e-14
-3.37031e-11
-5.90897e-13
-4.31971e-11
1.74766e-11
3.48976e-13
1.1698e-12
2.35537e-12
-1.42181e-13
5.17321e-12
-2.8067e-13
2.8474e-13
2.90306e-13
-1.00221e-10
-1.83061e-11
-1.05139e-11
2.98727e-13
1.0789e-12
3.40966e-11
-5.29312e-11
-2.96004e-13
-3.43755e-11
-1.36534e-12
1.50722e-12
-1.59152e-11
-2.13078e-11
-1.8423e-11
2.94658e-13
-2.26715e-11
-6.2309e-13
1.58815e-11
-1.66274e-13
1.74548e-11
6.47637e-13
-2.14573e-11
0
6.7969e-13
-1.95457e-11
-2.11577e-11
-1.63807e-11
4.76054e-14
8.95175e-13
-1.67784e-11
-3.76404e-11
-2.05699e-11
5.98946e-13
-3.42934e-11
2.56357e-13
0
1.46432e-12
2.93116e-13
0
-8.82704e-13
-1.19502e-12
-5.90739e-13
-2.6234e-11
-4.4303e-13
-6.13853e-13
-3.50554e-11
6.54713e-11
-5.31836e-12
-2.94441e-12
1.86768e-12
-7.26692e-11
1.32591e-12
1.62418e-11
-2.92861e-13
7.05895e-13
1.81742e-12
-3.88851e-11
2.18657e-11
8.78473e-13
-1.97077e-11
-3.77782e-11
-3.50713e-13
1.66143e-11
7.53271e-11
-7.74132e-11
4.36737e-11
6.81686e-13
-1.85256e-13
-2.04731e-12
5.88888e-13
4.93063e-11
7.01086e-12
-1.68052e-11
-6.63566e-13
-9.06968e-13
5.0612e-11
2.45114e-13
1.9093e-13
6.24406e-11
3.61021e-11
9.52457e-14
-2.68291e-14
-5.37618e-14
3.48047e-11
-4.75423e-13
4.79305e-11
-1.20021e-13
-2.04207e-11
1.95517e-11
-1.67082e-11
4.75594e-11
9.60445e-15
-1.4815e-11
1.60231e-11
2.65019e-11
1.64618e-11
-1.93783e-12
5.96492e-13
8.83419e-13
7.61307e-13
2.1056e-11
-1.61873e-11
1.96278e-11
3.86018e-11
1.75773e-11
1.76857e-11
-1.86452e-11
9.30937e-13
3.49001e-11
3.63633e-11
5.03786e-11
-2.04983e-12
2.93091e-13
-3.74353e-11
-2.94245e-13
5.97569e-13
-3.6934e-11
-2.98928e-11
3.71472e-11
1.84059e-12
-1.33333e-12
0
0
8.77185e-11
-1.30048e-12
-6.50512e-13
1.78788e-11
-3.90571e-12
3.71907e-11
-1.05249e-10
4.3397e-14
1.97214e-13
-1.5693e-11
3.60149e-11
7.43093e-11
-6.41514e-13
2.05407e-13
-3.61553e-13
-4.98217e-12
-3.54406e-12
-1.69377e-13
-2.023e-13
-1.9639e-11
1.16988e-12
0
-4.94892e-11
2.7266e-13
-2.52402e-11
1.3026e-12
-6.96651e-11
-5.14847e-11
1.76978e-11
1.39812e-11
-6.18489e-11
-7.5783e-11
-2.46677e-11
2.69531e-13
3.39813e-11
3.58447e-11
-5.10554e-13
-4.8825e-11
4.32652e-13
2.98322e-13
3.05362e-13
-6.77474e-15
4.77514e-13
6.62367e-13
3.75949e-13
2.68639e-13
-2.11994e-11
-2.07814e-11
1.49172e-13
1.49254e-13
-5.7618e-13
1.45882e-12
2.12876e-11
1.60342e-11
-2.18987e-13
-5.29842e-13
1.72319e-11
3.79113e-11
2.03018e-11
-1.84044e-11
-4.29913e-11
-3.60965e-11
-5.60541e-11
0
-1.46919e-12
3.75345e-11
-3.27027e-11
-3.4677e-11
4.15871e-13
2.35853e-11
-3.71977e-11
-1.22414e-12
7.67324e-13
4.17113e-11
5.88417e-13
6.80538e-11
8.73443e-11
-6.02317e-13
3.13437e-13
-1.64319e-11
-3.69708e-11
7.29418e-11
-4.66162e-11
1.66929e-11
-2.10246e-11
-3.6437e-11
-6.69313e-11
3.95018e-11
-2.00106e-14
-1.65278e-11
-3.79378e-11
1.17596e-12
-1.17633e-12
-1.26362e-13
8.42813e-14
3.28634e-11
-5.27656e-12
8.41609e-14
-2.24795e-13
-5.75396e-12
-8.42432e-13
-2.1321e-14
5.13364e-11
1.11454e-14
4.63203e-14
0
4.02866e-11
-2.37568e-11
4.1889e-13
-3.47631e-11
-3.61234e-11
1.71116e-12
-3.01277e-13
1.67698e-11
1.62713e-11
-4.89946e-11
2.21684e-13
-2.32842e-11
-4.31079e-13
1.84469e-11
-1.61805e-11
7.73077e-12
7.18215e-12
2.09024e-12
-1.73086e-11
-7.85943e-13
-1.6745e-13
8.34141e-13
6.88368e-14
7.02807e-14
1.41862e-14
2.15488e-11
-1.68322e-11
5.9689e-13
-1.07324e-12
-2.98665e-12
3.71335e-13
6.23488e-12
-2.97701e-13
1.78729e-12
-2.67584e-12
3.23696e-11
3.40955e-11
1.68123e-11
2.98724e-11
-1.02191e-11
3.67073e-12
1.45057e-10
7.91319e-11
-6.49002e-11
7.08579e-11
2.0572e-12
7.9311e-13
-3.9678e-13
1.59143e-11
3.24108e-14
-2.38501e-12
4.66216e-11
6.34228e-13
3.27044e-11
1.24257e-13
-1.47981e-11
-3.81857e-11
3.14391e-13
-2.55186e-13
5.41548e-13
8.33674e-11
-3.0099e-13
4.33883e-13
1.95975e-11
-3.22381e-11
3.14094e-12
-8.99775e-13
1.70401e-13
2.54396e-11
3.662e-13
-8.11849e-11
7.42433e-14
-3.32809e-13
4.61119e-11
0
1.27446e-12
4.83127e-11
-1.20277e-12
1.80602e-12
8.99772e-13
-7.91025e-11
1.8092e-12
-1.39728e-13
0
1.03222e-13
-1.85783e-13
-3.25079e-13
1.85709e-11
2.97326e-13
1.89032e-11
2.10191e-11
2.01021e-11
-7.46291e-13
-8.93264e-13
8.14267e-15
-1.38286e-12
1.70132e-13
-1.79588e-13
-3.4647e-13
2.13634e-11
1.69526e-11
1.81498e-11
4.46635e-13
1.8704e-11
4.49406e-11
0
-6.73994e-13
5.22255e-13
-2.96748e-13
3.26153e-12
-5.92869e-13
-2.97476e-13
-7.24389e-12
3.70353e-13
9.64555e-12
2.71677e-11
-1.8362e-11
5.31999e-12
1.07622e-11
3.31751e-11
-3.9322e-11
-8.20766e-13
-2.11045e-13
2.03817e-13
-3.37198e-11
0
1.21011e-11
-1.00768e-12
-3.15028e-11
-3.84977e-11
-1.71414e-12
3.78564e-11
-9.49544e-14
-4.78719e-13
1.54905e-13
-5.91464e-13
-1.34305e-11
-1.43028e-11
1.57991e-11
-1.41109e-11
-3.48544e-12
-2.9659e-12
1.91384e-13
1.0482e-13
1.19248e-13
7.33648e-11
-6.36473e-12
1.93692e-11
-9.24804e-12
1.08358e-11
-1.17349e-10
0
-1.75562e-11
1.90391e-11
1.06666e-12
1.05852e-10
-3.68948e-11
-3.74763e-11
-6.4333e-11
-3.78197e-13
-5.80745e-13
-3.22997e-11
-3.74781e-13
2.27321e-11
-2.96401e-13
5.09445e-11
-6.74306e-11
-9.58491e-11
5.80931e-13
2.72943e-11
2.84143e-12
3.96447e-11
-1.65259e-11
-3.56187e-15
-3.2125e-11
4.14811e-11
-8.87153e-13
-3.2625e-11
3.56089e-11
-5.92627e-13
7.78067e-11
-1.78649e-12
-1.63984e-11
3.72179e-12
2.9792e-11
-1.61051e-14
-1.18416e-14
1.93268e-11
1.8957e-13
2.93361e-14
-8.02717e-12
-4.28192e-14
-2.97813e-13
1.61828e-11
5.93528e-13
-1.18548e-12
1.4803e-13
1.47989e-13
1.25789e-11
2.96048e-13
-5.40854e-11
1.48378e-13
-7.42328e-13
-1.64677e-11
2.24707e-11
9.23247e-13
3.44173e-13
-1.15773e-12
-3.71362e-13
-1.71498e-11
2.90105e-13
1.30401e-11
4.45139e-13
-1.67398e-11
6.71944e-12
4.27256e-11
0
-4.37496e-14
6.90551e-14
-6.16529e-13
8.81762e-13
3.75242e-11
2.8597e-12
-1.65741e-11
5.34659e-11
1.54871e-14
-9.14858e-13
2.95347e-13
-9.43804e-13
2.53789e-11
1.39147e-12
8.25999e-12
-2.9601e-13
-1.67184e-11
1.9178e-11
1.31456e-12
1.9519e-14
-1.44363e-11
-1.98384e-14
1.3808e-11
-3.44444e-11
6.41222e-12
-3.9953e-12
5.91831e-13
-8.99732e-12
3.52997e-11
4.54652e-12
8.66975e-12
2.54557e-12
1.00114e-11
3.36305e-11
-1.08574e-11
-8.87888e-13
2.32363e-11
6.81494e-12
4.63967e-13
3.03047e-11
1.7542e-12
2.66731e-13
8.05046e-13
-1.73566e-11
-1.27962e-11
1.48027e-13
5.9265e-13
1.07344e-11
-4.37989e-11
-1.42063e-12
-2.94384e-13
1.77e-12
-4.50076e-11
1.14371e-11
-6.32985e-12
-1.55598e-11
-2.95262e-11
5.11766e-12
-4.3135e-11
-8.98201e-12
1.2928e-11
-1.84584e-11
1.80921e-11
6.06255e-12
5.18329e-12
-1.48395e-13
-1.69243e-11
-2.24043e-11
8.5977e-14
-1.47993e-13
-1.8791e-11
-5.91861e-13
-1.89445e-11
0
-1.48379e-13
7.42413e-13
8.89222e-13
-1.4813e-13
-1.4802e-13
-2.02679e-11
9.76267e-12
0
-2.11555e-11
-1.7466e-11
-2.96252e-13
-1.48201e-13
2.65133e-11
6.06729e-12
-7.39135e-13
1.75835e-11
2.70452e-11
-7.38931e-13
2.45273e-11
2.95634e-13
-2.13098e-11
2.20697e-11
7.40004e-13
-2.9564e-13
-1.98459e-11
-7.00886e-13
-4.43077e-13
5.24296e-12
5.16401e-13
6.49169e-12
9.97427e-13
1.73175e-11
0
1.28545e-11
-5.49632e-12
-5.7258e-12
-2.0358e-12
-5.77381e-12
-8.12318e-13
2.98667e-12
-2.95427e-13
1.4792e-13
0
-1.55173e-11
8.82444e-12
1.48061e-13
2.43279e-11
-1.55759e-11
0
-7.74552e-13
-1.32957e-12
-6.80295e-12
-1.03534e-12
-1.30051e-11
-2.30393e-11
1.23621e-11
-3.35258e-11
-1.70617e-11
1.47877e-13
-6.67501e-12
9.89738e-12
1.71554e-11
-2.51477e-12
-1.93559e-11
-9.59017e-13
1.00801e-11
1.95175e-11
1.47876e-13
1.87389e-11
5.04855e-12
6.94208e-12
2.95839e-13
1.48007e-13
-1.61118e-11
-8.48324e-13
5.53068e-12
1.10646e-13
-2.87641e-12
3.31646e-13
5.86216e-12
-1.47794e-13
1.62806e-11
-1.48121e-13
-2.95963e-13
1.12297e-11
-2.95412e-13
-1.75788e-11
7.38577e-13
-1.47696e-13
-1.89169e-11
0
1.4812e-13
2.07475e-12
1.33306e-11
-1.67248e-11
-4.43738e-13
-1.78937e-11
2.21817e-11
1.70088e-11
2.95982e-13
0
4.44599e-13
-1.48056e-13
2.96026e-13
1.03569e-11
-4.43746e-13
2.95805e-13
-2.91363e-11
8.8746e-13
3.89104e-11
0
2.96103e-13
1.62807e-11
-2.16003e-11
-5.91523e-13
-1.47845e-13
1.47847e-13
4.4353e-13
1.47835e-12
2.95733e-13
0
4.44011e-13
3.56548e-11
-1.47872e-13
1.87714e-11
-7.39012e-13
-1.4784e-13
-5.91341e-13
0
-4.18236e-11
-2.18837e-11
-3.10678e-12
2.95809e-13
-2.64631e-11
2.29089e-11
1.47854e-13
5.76964e-12
1.47929e-13
-4.43464e-13
-1.92091e-11
2.9563e-13
-2.95784e-13
0
-5.91364e-13
-2.6463e-11
-1.47938e-13
5.92257e-13
1.93952e-11
4.43688e-13
-2.06897e-11
-2.29099e-11
-1.77446e-11
-1.59719e-11
2.06972e-11
-1.62615e-11
-1.47928e-13
-5.92215e-13
1.4805e-13
0
1.18222e-12
1.478e-13
5.91472e-13
-4.14126e-12
-2.9566e-13
-2.14285e-11
-1.67035e-11
7.39467e-13
4.43668e-13
-7.38905e-13
1.78759e-11
-2.24653e-11
-4.43652e-13
-7.39719e-13
-4.43584e-13
-2.32019e-11
-3.60533e-11
-2.9556e-13
1.75848e-11
-1.4773e-13
-4.43256e-13
-8.8704e-13
1.53849e-11
1.77604e-11
0
4.43571e-13
-2.95618e-13
1.47797e-13
0
-1.90649e-11
-2.08448e-11
0
-1.4799e-13
1.74694e-11
2.23481e-11
0
7.39413e-13
0
-1.47858e-13
-2.95749e-13
1.47923e-13
-2.95975e-13
-2.96081e-13
7.39884e-13
-1.83463e-11
0
1.99668e-11
-9.90888e-12
1.47892e-13
-7.39494e-13
-1.47918e-13
-1.80495e-11
-4.43912e-13
-2.64833e-11
-2.54428e-11
5.91576e-13
-2.80974e-12
-1.47879e-13
0
1.47872e-13
-1.47883e-13
-4.43747e-13
-1.55342e-11
-1.03544e-12
1.71555e-11
-1.47869e-13
1.47872e-13
2.27744e-11
1.03516e-12
2.02567e-11
-1.33069e-12
-2.95761e-13
3.99356e-12
0
-1.30132e-11
-1.8188e-11
4.43686e-13
1.0355e-12
5.91693e-13
1.47877e-13
-1.96635e-11
1.56728e-11
2.95761e-13
1.47888e-13
0
1.47882e-13
1.47927e-13
-7.39868e-13
1.56846e-11
1.47904e-13
4.43554e-13
0
6.80186e-12
1.03523e-12
-3.99259e-12
1.77454e-11
-5.02932e-12
0
1.67194e-11
2.66212e-12
1.86285e-11
-1.47841e-13
4.43593e-13
-1.65644e-11
-7.3936e-13
-2.24744e-11
-1.33088e-12
-2.01147e-11
-2.95788e-13
1.77422e-12
-1.68522e-11
1.78888e-11
2.95743e-13
2.95827e-13
-1.80417e-11
-1.74467e-11
-3.25254e-12
1.47847e-13
-1.47842e-13
7.39119e-13
-8.8696e-13
1.47859e-13
0
2.95887e-13
-2.36658e-12
-1.47873e-13
8.87101e-13
1.89238e-11
1.47835e-13
1.95145e-11
0
2.41066e-11
1.90825e-11
-1.9236e-12
-1.34626e-11
1.6565e-11
-1.03512e-12
-1.4786e-12
-2.20307e-11
-1.6561e-11
-1.47891e-13
2.95851e-13
-2.95913e-13
1.33137e-12
-1.83416e-11
-9.90941e-12
0
-2.95768e-13
1.70064e-11
-7.39421e-13
-2.26276e-11
-1.47911e-13
2.95844e-13
0
-2.9581e-13
0
-2.9577e-12
-1.47884e-13
1.47881e-13
-1.47878e-13
-5.91513e-13
-1.47892e-13
-1.47904e-13
-1.8783e-11
1.59721e-11
-4.43651e-13
7.39447e-13
2.26284e-11
8.87363e-13
1.96679e-11
1.89273e-11
4.43624e-13
2.11477e-11
1.47886e-13
-1.47883e-13
-4.03737e-11
-1.47909e-13
-1.77512e-12
7.39604e-13
4.43679e-13
-1.93707e-11
1.56733e-11
-1.47867e-13
-2.95764e-13
2.95763e-13
0
0
-1.18362e-12
-1.93808e-11
0
-1.47871e-13
2.36568e-11