/*--------------------------------*- C++ -*----------------------------------*\
  =========                 |
  \\      /  F ield         | OpenFOAM: The Open Source CFD Toolbox
   \\    /   O peration     | Website:  https://openfoam.org
    \\  /    A nd           | Version:  10
     \\/     M anipulation  |
\*---------------------------------------------------------------------------*/
FoamFile
{
    format      ascii;
    class       volScalarField;
    location    "0.7";
    object      gradTx;
}
// * * * * * * * * * * * * * * * * * * * * * * * * * * * * * * * * * * * * * //

dimensions      [0 -1 0 1 0 0 0];

internalField   nonuniform List<scalar> 
46825
(
1.49086e-13
-1.32471e-13
-1.57241e-11
-2.94818e-14
2.74021e-11
-7.11854e-13
-1.60552e-11
5.88696e-13
4.13953e-12
-4.47299e-13
2.98106e-13
1.32386e-13
1.77891e-13
1.04888e-12
8.72321e-14
-1.1225e-12
-1.65116e-11
4.0861e-13
1.72575e-11
2.98125e-13
-1.34014e-11
3.93709e-12
1.27479e-11
-1.68181e-11
-1.27462e-11
-9.99948e-14
-4.92741e-13
5.06625e-13
7.20227e-13
-1.48912e-13
-1.48691e-13
1.4107e-13
-1.47554e-11
-4.6649e-13
1.4603e-11
2.83885e-13
1.81208e-11
-4.38705e-13
-1.79014e-11
2.97386e-13
1.26268e-11
1.32764e-11
4.80117e-13
-3.76315e-13
1.27635e-13
-2.67085e-13
1.71566e-11
-2.48862e-13
-1.68864e-11
4.45643e-13
-1.26283e-11
2.11121e-13
3.21104e-13
-1.27552e-11
1.49653e-11
2.19853e-14
-1.5129e-11
-1.25597e-13
-1.53433e-13
2.97125e-13
1.11553e-11
6.77286e-12
1.23038e-12
-7.55514e-12
-1.20589e-11
5.91091e-13
-8.98081e-13
9.75244e-14
3.76544e-13
2.97462e-13
-4.46889e-13
-1.42844e-13
9.64528e-12
-1.55733e-13
-9.60693e-12
2.53793e-13
-1.34522e-11
-6.12841e-14
1.38393e-11
0
1.491e-13
-1.18524e-11
-2.08165e-13
1.17208e-11
2.18935e-13
-2.46627e-13
6.50762e-13
3.10367e-13
-5.81075e-13
-1.49101e-13
1.49119e-13
-1.23762e-15
-9.05901e-13
-6.98666e-14
5.94183e-13
-1.82756e-13
-4.87199e-13
-3.49144e-14
5.29112e-13
1.49126e-13
-2.98394e-13
-8.98411e-14
1.63154e-13
4.1273e-13
4.1522e-15
-1.67543e-14
1.21008e-11
-3.30508e-13
5.87662e-13
1.25341e-11
0
-5.95427e-14
-1.60157e-11
1.22481e-11
1.61209e-11
-1.26027e-11
4.87635e-14
4.3104e-13
7.39383e-14
1.49332e-13
0
3.17951e-12
2.54498e-11
-2.58732e-11
8.90881e-13
8.2583e-14
-4.99388e-13
-4.45824e-11
7.59355e-12
-1.49297e-13
-1.49194e-13
-5.53257e-12
1.14907e-12
3.04856e-11
-7.33145e-12
-2.41107e-11
-5.00501e-14
7.73356e-13
-2.24291e-13
0
2.98316e-13
5.49638e-12
-2.72299e-11
2.66912e-11
6.37836e-13
-3.10043e-11
3.16146e-11
-2.66279e-11
4.67374e-12
-1.04409e-12
-1.49173e-13
-4.00122e-12
8.32999e-12
-4.17416e-13
-6.54924e-13
4.99441e-13
-7.20012e-14
3.75483e-13
4.11329e-13
2.98332e-13
1.23865e-11
-3.96402e-12
-1.5583e-11
7.37421e-13
3.53275e-11
-3.52969e-11
-5.87447e-14
2.80373e-12
-7.47898e-13
0
0
5.05203e-12
-8.05079e-12
-1.62154e-12
2.05534e-12
-3.09958e-13
-3.21222e-14
-4.62422e-15
-9.01864e-12
2.15046e-11
5.07825e-12
5.37253e-12
-1.19615e-14
-1.39962e-12
1.28539e-11
1.09366e-12
-2.61766e-11
-2.15824e-13
1.39599e-11
4.48082e-13
2.98441e-13
-5.36732e-14
-4.59298e-13
-3.27603e-13
-7.08003e-14
7.89673e-13
2.03454e-13
-2.15123e-13
-1.35966e-11
-1.32814e-11
-1.78996e-11
-1.88145e-12
6.43284e-13
-1.64695e-11
-7.32728e-13
2.00119e-11
4.38024e-14
-2.0281e-11
-8.88615e-14
1.49191e-13
2.32778e-11
2.36704e-11
-2.22343e-13
1.8254e-13
-2.67846e-13
-3.32432e-13
-3.60196e-13
2.56436e-11
-2.53334e-11
-1.49247e-13
-4.47221e-12
-4.56389e-12
8.45479e-13
-1.07606e-12
2.73499e-13
1.96834e-13
-8.25213e-13
-2.55039e-11
2.56419e-11
2.98189e-13
-2.84513e-11
-2.23868e-11
1.51584e-10
-1.89573e-07
-1.36589e-08
3.13345e-09
4.00481e-08
1.65253e-08
4.65768e-11
3.50081e-11
1.49007e-13
4.90506e-11
2.2894e-10
-2.45009e-07
4.38711e-08
-9.90082e-09
-1.23355e-07
2.5694e-08
-1.90557e-13
-2.84606e-11
9.08983e-12
3.92402e-14
3.11049e-10
-2.513e-07
4.68219e-08
-1.06302e-08
-1.29316e-07
2.62746e-08
-5.4639e-14
-2.98014e-13
-1.6835e-11
1.04704e-11
2.67579e-10
-2.18551e-07
3.75997e-08
-8.39358e-09
-1.04306e-07
2.35035e-08
-6.39208e-13
-5.66089e-12
6.71011e-12
-2.85643e-11
5.77304e-11
-2.13051e-09
-1.58807e-09
3.61769e-10
4.36269e-09
-3.31566e-11
-1.92613e-13
1.62526e-11
2.98511e-13
2.78577e-13
-3.96775e-11
4.01526e-11
-1.03333e-12
1.83497e-13
6.88751e-13
-3.04656e-11
2.97757e-11
-4.47773e-12
1.49171e-13
-1.43458e-13
4.61549e-14
-2.01773e-13
1.48411e-11
-1.41261e-13
-1.43042e-11
-9.23034e-14
-7.50684e-14
1.49187e-13
-1.51784e-11
2.80407e-13
1.48672e-11
-3.14136e-13
1.20463e-11
1.19205e-11
-1.21377e-11
-1.07094e-11
-1.13995e-13
-1.04198e-12
3.35725e-11
3.33962e-11
8.87972e-13
-5.95282e-11
-1.25478e-11
2.29943e-12
6.1511e-11
1.19715e-11
-4.92786e-13
-4.45838e-13
-7.37934e-13
3.7918e-12
-3.88236e-09
-2.30949e-07
-6.78758e-09
-6.93539e-11
1.22161e-08
5.94037e-07
9.68682e-08
-2.00791e-11
-1.58405e-11
9.85999e-09
5.7817e-05
-0.900237
-0.00601012
0.000381241
0.0161964
0.734973
3.01075e-06
4.25437e-12
-1.72842e-11
9.33519e-09
5.97704e-05
-1.39063
-0.0203664
0.00120908
0.057713
0.947688
2.67583e-06
-5.85952e-12
9.08171e-12
9.29229e-09
6.00394e-05
-1.39769
-0.0212717
0.00127646
0.0593148
0.951064
2.65786e-06
2.10926e-11
5.86729e-13
9.58992e-09
5.9179e-05
-1.37399
-0.0210364
0.00120458
0.0587834
0.935628
2.72731e-06
1.46669e-12
4.42848e-12
6.89567e-09
5.89454e-05
0.0135198
-0.0105542
-0.0128217
-0.014691
-0.0462552
1.63557e-06
-2.95237e-12
1.48588e-13
-1.20539e-13
7.05543e-09
1.93422e-08
7.69103e-10
-1.06166e-10
-3.66045e-09
-3.20994e-08
-7.31481e-12
4.01244e-12
-1.33927e-11
7.01872e-14
1.39592e-11
-1.81103e-13
-9.26142e-14
2.3415e-13
1.14576e-11
-1.84666e-13
-1.09624e-11
5.95335e-13
0
1.48041e-11
1.80463e-11
4.02168e-12
-1.78003e-11
-3.68461e-12
-4.95873e-13
-5.04298e-13
-2.79203e-14
-1.41237e-11
2.96633e-13
1.52941e-12
4.39075e-11
3.15349e-09
1.00131e-09
-9.8318e-11
-2.06319e-09
3.47237e-10
-7.23521e-11
6.67766e-12
1.17517e-12
-6.71664e-10
-1.90284e-06
-0.00284182
0.000902356
0.000152426
-0.000900961
0.00104998
6.50472e-07
-1.70464e-11
-3.29485e-11
-1.38836e-07
-0.827789
0.000427998
2.71494e-11
-5.13188e-11
-3.16301e-07
-1.00661
0.00089268
4.07698e-11
-3.57082e-11
-3.03141e-07
-1.00863
0.000894925
6.33175e-11
-3.49874e-11
-3.42343e-07
-1.00407
0.000885278
3.55584e-11
7.34713e-13
1.05907e-08
0.0162302
-5.27246e-05
-9.25635e-12
2.07717e-11
7.74581e-12
2.90745e-08
1.24092e-05
9.20987e-07
-1.59451e-07
-3.98377e-06
2.04048e-06
4.22534e-10
-1.2762e-11
1.4862e-12
-1.20795e-11
-6.03676e-13
1.84858e-11
-1.49136e-13
-4.43402e-12
2.39658e-12
-8.41584e-13
7.46582e-12
1.02569e-11
-1.26365e-11
1.47625e-11
1.28318e-11
-1.49497e-11
2.62488e-13
-1.57724e-13
-1.93766e-13
3.79701e-13
-4.67274e-14
-1.4871e-13
-1.67789e-11
-2.20385e-11
3.97997e-11
2.29323e-09
1.32828e-09
-9.10734e-11
-2.78326e-09
3.69719e-10
-3.18338e-14
4.45611e-13
2.94089e-12
-7.48841e-10
-2.0383e-06
0.0282613
0.000780177
0.000159361
-0.00138615
0.00116555
6.90449e-07
-2.94081e-13
-2.65453e-11
-1.15302e-07
-0.850063
0.000720056
6.67207e-12
-4.25749e-11
-3.38928e-07
-1.05066
0.000977263
6.48012e-11
-2.94438e-11
-3.19461e-07
-1.05356
0.000981057
6.73981e-11
-1.29134e-11
-3.61546e-07
-1.04718
0.000962933
1.68241e-11
6.91381e-12
1.1753e-08
0.017385
-5.60143e-05
-7.20536e-12
3.03034e-11
-2.78253e-13
3.0751e-08
1.45564e-05
1.26128e-06
-2.27329e-07
-5.25163e-06
2.29402e-06
5.06131e-10
5.94221e-13
1.12989e-11
-1.59596e-11
-1.14716e-11
1.63014e-11
6.1147e-13
-3.85285e-13
-1.75393e-11
-1.23746e-11
3.02758e-11
2.57246e-11
-1.48749e-13
3.15942e-11
1.24887e-11
-1.90883e-11
5.07707e-14
-1.69426e-11
-1.24722e-13
4.77709e-12
2.40331e-14
1.23501e-11
-1.61988e-11
-2.50721e-11
1.07112e-11
2.14164e-09
1.29228e-09
-1.00243e-10
-2.77561e-09
3.74744e-10
7.69191e-14
0
4.56225e-12
-7.92126e-10
-2.05866e-06
0.0284389
0.000781133
0.000106785
-0.00138853
0.00117329
6.98887e-07
-1.03007e-12
-4.0931e-11
-1.0159e-07
-0.85118
0.000724689
2.59756e-11
-4.33169e-11
-3.16698e-07
-1.05283
0.000981354
4.17273e-11
-4.41876e-11
-3.02945e-07
-1.0556
0.000984848
5.21269e-11
-2.16331e-11
-3.47317e-07
-1.04914
0.000965786
2.96115e-11
1.17783e-12
1.17981e-08
0.0174143
-5.61694e-05
-1.61922e-12
1.4868e-13
4.37732e-14
3.087e-08
1.47299e-05
1.3286e-06
-2.25349e-07
-5.3094e-06
2.29964e-06
5.1018e-10
-4.16356e-12
0
1.71312e-11
2.12379e-13
-3.46116e-11
-3.10948e-13
1.83606e-11
5.31895e-12
-3.53197e-13
-4.96269e-12
0
1.96448e-11
-3.7715e-13
-1.98613e-11
6.16799e-13
1.36611e-13
-1.03717e-12
-1.51066e-11
1.54237e-11
1.51608e-11
-1.48866e-11
2.23043e-12
-6.28757e-13
3.49344e-15
2.13253e-09
1.315e-09
-1.59881e-10
-2.72408e-09
3.63832e-10
-1.10468e-13
1.48743e-13
2.56226e-11
6.23651e-11
-2.03015e-06
0.028461
0.000781251
5.40513e-05
-0.00144093
0.00117335
6.93874e-07
3.53356e-12
-2.81766e-11
-1.02284e-07
-0.851237
0.000725371
2.96213e-11
-2.26849e-11
-3.16842e-07
-1.05288
0.000981714
4.52241e-11
-3.95936e-11
-3.02128e-07
-1.05582
0.000985025
3.58382e-11
-2.90565e-11
-3.46498e-07
-1.04919
0.000951995
3.79215e-11
1.4732e-13
1.17872e-08
0.0174142
-2.16291e-05
5.74585e-12
3.42164e-12
-7.45042e-12
3.0774e-08
1.47358e-05
1.3361e-06
-2.21094e-07
-5.33027e-06
2.2994e-06
5.33123e-10
4.61255e-12
-1.38418e-11
-2.87143e-12
1.381e-11
-1.71005e-11
1.94137e-13
1.9638e-11
-6.85159e-13
4.32205e-13
3.80235e-13
-1.48862e-13
-1.6228e-11
-1.70215e-11
1.52076e-11
1.44335e-11
-1.54814e-11
3.18011e-12
1.08478e-13
-1.73499e-11
-1.10445e-12
-1.48922e-13
-1.48752e-13
6.46746e-14
-2.98104e-13
2.25141e-09
1.25763e-09
-8.99194e-11
-2.71754e-09
3.22949e-10
2.076e-11
-5.65433e-12
1.47341e-11
8.93356e-11
-2.0342e-06
0.0284286
0.000780798
0.000106742
-0.00144015
0.00117379
6.97105e-07
-1.03126e-12
-4.47841e-11
-1.12295e-07
-0.850922
0.000724706
2.77664e-11
-3.66113e-11
-3.27526e-07
-1.0522
0.000979462
3.73342e-11
-6.54146e-11
-3.1284e-07
-1.05497
0.00098259
2.50373e-11
-3.37443e-11
-3.59011e-07
-1.04849
0.000960874
3.7816e-12
0
1.17756e-08
0.0173982
-0.000139442
5.89635e-12
1.48825e-13
-2.05641e-12
3.07765e-08
1.45838e-05
1.31177e-06
-1.87044e-07
-5.21357e-06
2.28292e-06
4.83589e-10
5.35839e-12
0
1.22283e-11
-1.65732e-13
-1.21624e-11
5.00578e-13
-8.98711e-14
-1.73198e-13
1.36127e-11
3.87751e-14
-1.35512e-11
-2.97844e-13
-2.18203e-13
6.50306e-13
1.30509e-11
-9.68263e-14
-1.293e-11
-1.26083e-13
3.31266e-14
-1.16876e-13
-1.4896e-13
2.97597e-13
-1.02543e-12
-3.07064e-11
6.08192e-10
1.9336e-10
1.1573e-11
-6.03604e-10
2.42451e-10
5.03704e-11
-1.44376e-11
1.59253e-11
5.69939e-11
-1.99852e-06
0.0241024
0.000609713
5.24284e-05
-0.00105644
0.00112817
6.80563e-07
-1.06161e-11
-7.57751e-12
-3.28907e-08
-0.837147
0.000619708
-2.33118e-12
-3.04811e-12
-5.46534e-08
-1.02195
0.000707683
-4.78966e-12
-1.01612e-12
-4.15707e-08
-1.02415
0.000708631
1.30637e-12
1.85115e-11
-9.26529e-08
-1.01922
0.000707825
-2.18593e-12
-1.47514e-13
9.77708e-09
0.0165143
-5.00283e-05
4.12978e-12
1.48861e-13
2.80141e-11
2.73571e-08
1.03653e-05
7.53202e-07
-9.92441e-08
-3.00949e-06
1.78505e-06
4.55285e-10
0
0
-5.90019e-14
-1.75969e-11
-5.38396e-13
1.85355e-11
8.71376e-13
-2.14968e-11
-3.5883e-13
2.11343e-11
0
-3.15758e-11
-1.35436e-11
1.85678e-11
5.07531e-13
5.23099e-14
1.88674e-11
-6.17646e-14
-1.94561e-11
-8.50463e-14
0
-2.72348e-11
-2.18429e-11
-1.78615e-12
-4.7307e-12
-1.15143e-12
5.66539e-14
2.89149e-12
-5.88845e-13
-1.30956e-12
-4.76297e-12
-5.75049e-12
3.43278e-11
-1.26243e-07
1.6152e-06
4.61501e-08
3.79496e-09
-8.97583e-08
-7.48244e-06
2.10277e-08
-5.30826e-12
-5.68264e-12
4.85273e-10
-0.000214851
-7.05495e-07
2.09816e-11
-1.45149e-13
4.45208e-10
-0.000220942
-7.39474e-07
1.45143e-13
1.52416e-11
4.37429e-10
-0.000221155
-7.41675e-07
5.51568e-12
1.73429e-11
4.64414e-10
-0.00022062
-7.31524e-07
5.68312e-12
-5.89996e-13
-6.69545e-11
-0.000197629
-2.60021e-07
-5.75183e-12
1.19101e-12
-1.82811e-11
4.36347e-10
-6.69459e-09
-5.03542e-10
7.83364e-11
1.77373e-09
5.71641e-09
-2.26312e-11
2.9776e-13
0
-3.41405e-13
4.29109e-14
3.56582e-13
-7.44962e-12
-5.55614e-14
6.93771e-12
1.18655e-13
1.31377e-12
2.97928e-13
0
1.59905e-14
-2.64827e-14
2.05165e-11
1.33319e-11
-2.02973e-11
9.4863e-13
-1.26583e-11
-1.52713e-11
1.16187e-11
8.9291e-13
-1.10783e-13
1.48923e-12
9.78875e-13
-1.00591e-12
-2.70935e-13
2.60957e-11
3.53044e-12
-3.00051e-11
4.61345e-12
-5.15705e-12
-1.99642e-11
5.90611e-11
4.89587e-11
-1.37365e-12
-5.83788e-11
-1.50972e-12
-3.69301e-11
9.05429e-12
-5.45215e-12
-5.52496e-12
1.17852e-11
-8.19493e-13
-9.42869e-12
-1.94842e-11
-2.72075e-11
-2.21512e-11
1.11532e-11
2.69871e-11
-5.35455e-12
2.89456e-13
-3.71496e-13
1.27599e-11
1.97839e-12
-1.44721e-13
0
-8.87118e-14
6.48668e-12
2.91421e-13
-2.18106e-11
-3.58157e-11
-1.3088e-11
-4.74553e-12
6.29185e-12
-1.41476e-11
-9.67604e-12
1.07248e-11
-3.0134e-13
-1.93902e-12
4.21086e-12
-1.98954e-12
-7.72372e-13
1.80539e-13
-7.82643e-14
-7.74044e-12
4.46836e-13
6.16195e-14
-7.76528e-13
1.05364e-13
-2.64277e-14
-7.18344e-13
-1.53343e-13
-1.61876e-11
4.88428e-13
1.65339e-11
-2.9489e-11
-2.18753e-13
2.90488e-11
-1.21483e-11
1.19726e-11
1.2206e-11
-1.15626e-11
-2.71363e-13
1.74891e-13
-1.48942e-13
3.5713e-12
2.22389e-13
-2.65126e-11
2.63557e-11
2.29925e-13
-1.84179e-13
-3.87753e-11
4.59002e-11
-5.86576e-12
4.61277e-12
2.94572e-13
-9.50026e-13
6.65662e-11
1.74321e-12
0
1.48259e-12
-1.40014e-12
-2.6375e-12
1.20929e-12
-6.77562e-12
-1.45253e-13
4.31888e-13
1.49369e-12
-5.8164e-13
0
0
1.26753e-12
2.55707e-11
1.46454e-13
-2.89052e-13
-1.15629e-12
2.08139e-13
-2.50252e-12
1.5263e-11
-9.39444e-12
-4.35818e-13
-1.23804e-13
9.4415e-13
7.87643e-12
1.72862e-11
-2.94653e-13
2.23261e-13
2.17492e-11
1.09778e-11
-2.4895e-11
-1.3991e-11
-2.53916e-11
-2.92868e-13
-1.3115e-11
-1.9837e-13
2.44287e-13
-8.10797e-13
8.372e-13
-2.83161e-13
-1.04183e-12
-1.3404e-11
-2.78768e-11
-6.01299e-14
2.70923e-11
1.21668e-11
-1.2853e-11
-1.08423e-11
1.38661e-13
-1.17051e-12
-1.4894e-13
7.44638e-13
6.21198e-13
-4.60327e-15
-9.67061e-12
2.18238e-13
9.92003e-12
1.32361e-11
1.64792e-11
-1.37018e-11
-1.69782e-11
0
-1.00667e-12
5.95795e-13
2.6852e-11
-2.6159e-11
-2.55034e-11
2.4713e-11
2.05952e-12
-1.97367e-12
2.15754e-11
4.27093e-12
-7.67926e-12
-2.02834e-12
4.06824e-12
1.17985e-10
-4.54333e-11
3.80152e-13
-1.29177e-12
7.72991e-12
-2.94546e-13
1.45225e-13
-5.04636e-13
8.45386e-11
1.2791e-11
2.03315e-11
1.80617e-11
1.05307e-11
-9.79776e-13
2.41789e-11
-1.02588e-11
5.77993e-13
-1.85312e-12
6.9402e-12
-1.07188e-11
5.77975e-12
-4.79294e-12
3.556e-11
-2.28481e-11
9.26616e-12
1.26353e-11
9.13288e-12
-7.80679e-12
4.32159e-13
-7.89679e-12
1.62023e-12
-1.66689e-11
-2.01479e-11
-1.20785e-12
1.1355e-12
-7.05759e-13
4.96279e-13
-2.56056e-11
2.61557e-11
-5.39743e-13
0
0
1.65361e-13
1.73741e-13
-4.58659e-13
-7.47423e-13
-1.63064e-11
1.54222e-11
1.87868e-11
-1.44947e-11
-1.93609e-12
2.38293e-12
2.62913e-12
7.38609e-13
1.73157e-11
-1.48234e-14
-5.43579e-12
2.17928e-13
-1.2029e-11
1.47281e-11
1.47448e-11
-4.16633e-12
8.59858e-13
2.97885e-13
3.57752e-11
-3.58572e-11
2.60507e-11
-2.57721e-11
-2.94186e-13
2.49464e-11
-4.31519e-12
2.96046e-11
2.4907e-11
4.98967e-11
0
0
-7.38235e-13
1.27189e-10
-7.30761e-11
2.68812e-11
-6.7751e-12
-8.13497e-12
-1.70071e-12
-1.59587e-12
-1.24274e-11
5.81061e-12
-5.49293e-12
2.6951e-11
-5.88057e-11
-9.88931e-12
4.33651e-12
-3.18025e-11
-1.21963e-11
7.49035e-11
-7.04614e-12
1.44554e-13
-7.26411e-13
-2.80735e-13
-4.91123e-13
-6.20012e-12
1.16222e-12
1.70888e-11
-2.86743e-11
5.41605e-11
-3.24975e-11
2.93143e-11
2.545e-11
1.78485e-11
3.53274e-11
-3.51272e-11
3.88609e-11
-7.8863e-11
3.89289e-11
1.09807e-13
6.48059e-13
-1.42874e-11
0
5.20363e-13
-1.55794e-11
-1.49095e-13
3.47001e-11
1.21679e-13
-1.90628e-11
-1.80661e-13
-1.4752e-13
0
5.95762e-13
3.13822e-13
6.40781e-13
-7.89869e-14
-3.99679e-13
-1.55132e-12
1.47457e-13
1.75736e-12
1.26432e-11
1.28097e-11
-1.35411e-11
3.63353e-12
-3.00748e-11
1.14809e-12
2.26418e-11
-2.38675e-11
5.16394e-13
0
-3.58058e-13
-6.10141e-12
1.73867e-11
1.7526e-11
1.50264e-13
0
-2.3576e-12
-1.54926e-12
5.74632e-13
4.0044e-12
1.06356e-11
0
-4.36341e-13
4.05277e-13
1.90581e-13
-7.26042e-14
6.98158e-12
1.44808e-13
2.64431e-13
2.63308e-11
1.08274e-11
-1.44808e-13
-4.1996e-12
8.10706e-12
3.98431e-12
-1.12869e-11
3.47549e-12
-2.25473e-11
-1.74338e-11
3.83706e-12
2.91444e-13
0
-3.83192e-12
7.22685e-12
3.41202e-11
-4.13969e-11
1.0611e-11
-1.66707e-11
-1.75234e-11
-6.03474e-13
-3.56137e-11
3.53628e-11
1.57173e-13
-2.8177e-13
-1.69125e-13
-2.10595e-13
-4.46525e-13
2.24911e-11
3.90044e-13
-2.2566e-11
-1.91312e-11
-3.40305e-13
1.84935e-11
5.86054e-13
1.92974e-11
-8.88492e-14
-1.96612e-11
-1.48961e-13
2.3103e-13
-1.59013e-11
-3.3687e-13
1.58305e-11
-2.25792e-13
6.83338e-14
5.87723e-14
-1.23953e-13
-2.9797e-13
1.19063e-12
5.01362e-14
3.92897e-11
-7.02915e-11
3.02254e-11
-3.06991e-11
3.14503e-11
1.16363e-12
-2.44023e-12
-4.3169e-12
0
-1.25095e-12
2.2301e-12
-6.69072e-14
1.11595e-10
-1.57104e-12
1.98234e-14
2.39536e-13
-8.12479e-12
-1.47476e-13
-4.9558e-12
-4.63899e-13
-1.90704e-11
2.77167e-11
-4.37285e-12
4.35648e-13
1.70063e-13
4.33047e-12
-7.81291e-12
-8.71303e-13
-8.71334e-13
-9.98759e-13
-5.54238e-11
8.56401e-12
4.64709e-12
1.89508e-12
-5.90774e-12
-1.82318e-11
-7.85502e-12
1.45771e-13
-7.96562e-12
8.34548e-12
2.14965e-12
1.53383e-12
-8.40752e-12
1.04228e-12
-1.05461e-11
1.26397e-11
-4.50978e-12
4.06806e-13
-4.52608e-13
-4.28472e-11
4.45159e-11
2.4845e-13
-1.68249e-11
0
-2.15363e-13
1.95021e-13
-1.31393e-13
1.72653e-14
2.11518e-11
1.48869e-11
-2.12809e-11
-1.59905e-11
-4.46956e-13
5.95862e-13
8.71046e-13
-6.74904e-13
-1.44433e-13
4.60438e-13
2.01162e-14
-1.34288e-13
5.47388e-15
-1.61849e-13
-2.98006e-13
-1.65203e-11
-1.63655e-11
-2.97829e-13
9.13947e-14
-3.01917e-14
5.61848e-13
5.63153e-13
2.94504e-13
-1.44381e-13
1.44418e-11
1.2239e-11
3.12493e-12
-1.38779e-12
-1.63895e-12
-1.35573e-12
-5.18748e-11
6.71061e-12
1.03132e-12
1.76848e-12
-4.27699e-12
1.45656e-13
-2.25174e-13
-1.96416e-11
8.75073e-13
-2.08297e-11
-4.78646e-12
-2.66545e-11
4.11126e-11
3.84741e-11
4.35147e-13
0
-6.66585e-13
-1.13361e-11
1.6317e-11
-3.19116e-12
-1.45662e-12
3.57455e-12
-2.42546e-11
-1.76214e-11
-1.74792e-11
9.88258e-12
-7.90929e-12
-8.60965e-13
1.17138e-11
5.89983e-12
5.36124e-12
2.39247e-13
-9.95973e-13
4.52461e-13
3.06662e-13
-3.29887e-11
3.27319e-11
2.3419e-11
-2.38238e-11
2.97843e-13
-2.24991e-11
-6.35379e-13
2.25445e-11
1.72817e-13
-1.66852e-13
4.02823e-13
-2.05945e-13
-2.18816e-11
1.14409e-13
2.19031e-11
0
-9.91632e-14
1.75406e-13
1.8892e-13
1.92884e-14
-8.20911e-14
-3.6006e-13
3.71376e-14
-5.02564e-14
1.48993e-13
5.05906e-12
2.00189e-15
2.53242e-11
-2.48858e-11
1.23883e-12
-2.08253e-12
5.62134e-13
1.17698e-12
-1.06768e-13
-2.30727e-11
7.22054e-12
-9.35101e-12
1.43159e-12
-1.73728e-12
5.72953e-13
1.04173e-13
6.67734e-13
4.45302e-13
0
-1.28213e-11
1.45381e-13
-2.49365e-11
5.68847e-11
-3.62417e-12
-1.67186e-11
-3.61658e-12
2.59849e-11
-3.37346e-11
8.63127e-12
6.36537e-12
8.96939e-12
1.08543e-13
-9.4093e-14
-1.86889e-11
-1.63478e-11
1.45374e-13
-6.93144e-13
2.68414e-11
2.33894e-11
-4.36134e-13
-1.47386e-13
-1.92639e-13
1.09373e-11
8.1191e-12
1.4739e-11
2.62051e-11
1.99935e-11
2.11311e-12
-2.23172e-12
1.33605e-12
-1.23178e-13
-1.71915e-13
-3.31547e-13
-4.98301e-13
1.77191e-11
-2.53292e-12
-1.59598e-11
3.73722e-12
5.87692e-14
-2.8944e-11
-1.51865e-13
-9.60163e-13
-1.34115e-13
2.92544e-11
1.5794e-11
0
1.47561e-11
1.96974e-13
-1.44306e-11
-3.28998e-14
-5.58672e-13
-4.20021e-14
1.93411e-13
-1.27276e-13
2.98008e-13
1.27961e-11
-4.15401e-11
2.71147e-11
-4.26416e-13
8.21644e-14
-3.29993e-13
-3.89473e-11
3.79737e-11
8.83829e-13
-4.91225e-12
-1.25228e-11
-2.56263e-12
9.78279e-13
-4.23173e-11
-6.34166e-11
8.1273e-12
2.84359e-12
-5.85969e-11
5.18553e-11
-5.89312e-12
-1.45302e-13
6.95226e-13
2.27668e-11
1.74386e-12
1.65626e-11
2.89105e-13
-1.40098e-12
1.02905e-12
-3.6038e-11
4.91489e-12
-4.19212e-12
2.96297e-11
-1.66781e-11
8.29347e-12
6.21605e-12
1.59824e-12
7.16452e-12
1.70097e-12
5.00385e-11
-1.71452e-11
-1.47352e-13
5.6632e-13
-1.78594e-11
1.31745e-11
-2.94725e-13
-3.87103e-12
-1.10464e-12
1.65145e-13
4.82613e-13
-5.24341e-13
3.32775e-11
-3.30069e-11
-5.63877e-11
5.74463e-11
-4.467e-13
-2.98011e-13
1.26325e-11
-1.7874e-11
-1.27851e-11
1.51857e-11
-6.05572e-14
-1.65991e-11
-1.72201e-11
2.00094e-11
1.75831e-11
-4.47031e-13
2.57437e-14
-1.49479e-11
1.20854e-11
1.11969e-12
-4.14359e-11
1.47146e-11
2.87109e-11
1.43276e-11
1.37133e-11
-4.01879e-12
8.73789e-13
-1.19187e-12
-1.75442e-13
1.65271e-13
-4.70947e-13
-2.59699e-13
-1.15052e-12
1.87002e-12
2.02512e-11
-3.97925e-12
5.20071e-11
-7.01524e-11
-6.20297e-11
8.05546e-13
1.62471e-12
-6.1234e-11
2.0792e-12
-9.67308e-14
-1.37063e-11
-3.7797e-12
-3.13553e-12
7.2324e-11
7.41332e-12
-1.88958e-12
2.89271e-13
3.19798e-11
-1.54611e-11
1.03296e-11
-5.06225e-12
5.06238e-12
5.34538e-14
1.81776e-11
1.079e-11
1.44643e-13
-2.90731e-13
-2.54281e-11
3.48634e-11
-8.17003e-12
0
1.47405e-13
-1.17383e-13
-1.10907e-11
2.67846e-12
-1.14986e-11
3.84248e-11
2.99048e-11
9.05971e-13
-5.84363e-12
5.74418e-12
2.22215e-15
8.75944e-13
-1.18734e-12
-2.65888e-11
8.19219e-12
0
3.62387e-13
1.78475e-13
2.41308e-14
-1.34039e-13
-4.73016e-13
3.87792e-13
7.17042e-13
-3.48341e-13
-5.96255e-13
4.47369e-13
-1.81076e-13
-1.64084e-11
-1.23303e-11
1.5944e-11
1.22795e-11
-1.25077e-11
-2.84591e-11
-2.66752e-12
1.2977e-11
5.06528e-12
-5.60972e-13
1.19163e-12
-2.79491e-13
-1.06015e-13
-2.72805e-13
-1.20607e-13
2.41604e-13
-2.9424e-11
1.16244e-11
2.78943e-11
2.3572e-11
-4.32137e-14
1.15909e-12
-3.77701e-11
6.29603e-11
8.98164e-13
3.50995e-13
2.26957e-12
-3.24724e-12
-1.83608e-11
-3.21738e-12
-9.15115e-11
-1.21988e-11
-1.66104e-11
-1.69734e-11
-2.10071e-11
7.93556e-13
-3.30723e-11
1.4506e-13
-1.71188e-11
-3.51311e-12
-4.513e-13
-2.08922e-11
5.80267e-13
1.45719e-13
2.51913e-11
-3.5318e-11
-4.80933e-12
-4.22595e-12
1.16619e-11
2.77569e-11
5.58703e-11
-2.7208e-11
5.90546e-13
-5.06809e-12
-6.44333e-13
6.03678e-13
-2.5848e-11
2.60329e-11
-3.34952e-13
-2.52763e-11
5.93654e-11
-3.45423e-11
0
2.98322e-11
1.53895e-11
2.97887e-12
1.42571e-13
-3.13468e-11
1.19083e-11
1.36682e-11
-1.72499e-11
-1.33696e-12
3.43097e-12
-1.49254e-13
2.00952e-13
-1.43305e-13
-5.04873e-13
-1.4159e-13
-4.43121e-14
1.26032e-11
1.29107e-11
-1.32839e-11
-1.3435e-11
-4.92419e-12
-1.20782e-11
-1.07264e-11
9.96223e-12
8.89217e-14
2.16181e-13
-4.99708e-14
2.91454e-13
-8.7945e-13
-1.52236e-11
3.00718e-11
-5.78838e-12
4.45507e-11
-5.78388e-13
9.34077e-14
5.35604e-11
-5.42843e-14
3.92352e-12
4.80707e-13
4.44542e-13
1.4676e-13
-9.44157e-14
2.62572e-13
1.52216e-12
5.57766e-12
5.8543e-13
2.61331e-11
2.20576e-11
-2.30818e-11
-9.51361e-12
0
5.3419e-13
-8.38908e-13
-1.46326e-13
-1.46374e-13
2.33373e-11
1.91158e-11
2.73676e-13
2.75866e-11
-5.7254e-12
2.13362e-11
2.53252e-11
-1.43637e-13
-3.95797e-11
1.03754e-11
1.62709e-11
1.65113e-11
3.13545e-11
-6.67169e-11
3.54598e-11
-3.9154e-14
3.76463e-13
-9.45031e-13
2.48306e-11
7.46561e-13
2.98556e-13
4.79044e-13
3.28764e-13
3.71824e-13
-5.80745e-13
-1.37716e-13
-1.54041e-11
-1.49575e-11
1.58245e-11
1.4781e-11
0
7.91726e-13
2.74578e-13
-1.06664e-12
-1.03418e-13
9.11408e-14
3.77888e-13
-1.30356e-13
-3.98657e-13
0
6.41816e-12
2.72102e-11
1.19551e-12
-1.19745e-13
1.07771e-12
-1.59528e-12
5.94631e-13
3.6193e-13
-1.17121e-13
0
-5.8003e-12
3.30727e-11
4.84926e-11
6.81206e-14
5.83399e-11
4.69519e-11
1.54299e-12
-1.2461e-13
5.25719e-11
-1.33922e-12
6.07196e-12
-1.51868e-11
-3.24141e-11
3.10897e-11
-4.00163e-12
-6.65821e-12
6.31736e-12
-9.01266e-11
1.20841e-11
-8.14468e-12
2.95935e-13
9.66884e-13
-1.66351e-11
1.42003e-11
-4.29486e-12
0
3.71087e-13
4.27766e-11
-5.75994e-12
4.44751e-12
2.33557e-11
2.22297e-11
1.65343e-11
3.71216e-13
0
1.49303e-13
-1.65611e-13
-2.44867e-11
2.26544e-11
3.2239e-12
-2.67418e-11
2.55159e-11
9.69999e-13
-1.79625e-14
1.65784e-11
-1.93989e-11
2.98189e-12
2.22855e-11
-3.09592e-13
1.3503e-14
-5.78635e-14
5.68869e-12
-2.53582e-13
-5.35002e-12
0
1.22079e-11
1.30112e-11
9.23733e-13
-3.71776e-13
-7.90008e-13
1.96607e-14
2.88183e-11
4.7499e-13
-2.86483e-11
1.48878e-13
0
1.25791e-12
-1.60789e-13
-2.3707e-12
1.18661e-12
5.72776e-13
-2.03845e-13
3.28278e-13
-5.26683e-13
4.31697e-12
-8.76429e-12
4.55175e-11
-3.73686e-11
1.18271e-12
3.16755e-13
-2.53335e-13
-1.25456e-11
2.36614e-11
-2.31846e-11
0
-2.49116e-11
-4.94529e-11
2.75385e-11
2.46726e-13
-9.18068e-13
6.98686e-13
2.57991e-11
1.72151e-11
1.55386e-12
1.60201e-11
-2.26814e-11
-1.69859e-11
-1.30053e-11
3.74837e-11
-3.36272e-11
3.46851e-13
-2.67068e-11
-1.47405e-11
-1.42502e-13
5.33878e-12
4.74411e-12
-8.34696e-12
5.35029e-13
-7.40489e-13
2.20603e-12
3.15198e-11
3.90716e-13
-4.79816e-11
3.12334e-11
-1.0382e-11
1.48309e-13
-2.74146e-11
3.81076e-11
1.55229e-11
8.92576e-13
1.72566e-13
-5.27111e-13
-1.48997e-11
-2.45373e-11
-4.00617e-12
-2.97167e-13
-3.98966e-11
4.55762e-11
-6.81873e-11
-1.58841e-14
-4.81934e-12
-1.09114e-12
5.83024e-11
2.3383e-11
-3.86477e-12
-3.21563e-11
-5.3785e-11
2.40683e-11
-1.26777e-13
-3.10614e-11
3.15227e-11
1.20305e-13
-4.40297e-13
-5.25712e-13
3.72289e-12
2.97743e-13
2.1623e-13
2.34558e-13
1.43719e-11
-2.09652e-13
-3.46718e-13
7.78313e-14
-1.40671e-11
-5.96924e-13
-7.44531e-13
7.4233e-13
7.51112e-13
-1.90983e-13
-1.62857e-13
-3.36574e-14
1.61791e-11
1.28537e-11
-2.23893e-12
-1.30049e-11
-1.36588e-11
1.43907e-11
1.33472e-13
-2.78746e-11
-2.03485e-11
1.33571e-11
2.01161e-12
-2.5068e-14
3.49781e-11
-5.25364e-12
-2.15151e-11
1.4814e-13
1.13731e-11
8.95633e-13
-1.84616e-12
8.82026e-13
-5.88236e-13
2.93845e-13
3.23307e-11
-3.26467e-11
4.44675e-12
-1.47983e-13
1.0584e-11
-9.10943e-12
-9.97401e-14
1.13928e-12
-8.87228e-13
2.94639e-13
2.49102e-11
-1.17218e-11
-5.9202e-13
1.1984e-11
-4.46376e-12
-1.49522e-11
-7.21379e-13
-5.59256e-12
1.76488e-11
-4.28243e-12
9.48853e-12
-1.18056e-12
-7.39871e-13
1.27244e-11
-4.79604e-12
-8.04142e-12
-4.88124e-14
1.31691e-11
-2.45035e-11
1.42761e-11
-9.80659e-12
-1.59755e-11
-5.77127e-12
1.48002e-13
-2.03963e-11
2.817e-12
-2.78505e-11
-2.96597e-13
1.44424e-11
9.00551e-12
-1.02101e-11
-6.04922e-12
1.90955e-11
1.20012e-11
-3.47149e-12
-1.62752e-11
1.4896e-13
-9.1501e-13
3.6414e-13
2.57971e-13
-2.6549e-11
-8.19926e-12
-1.27443e-11
-1.48373e-13
-4.59101e-12
-2.51255e-11
1.24269e-11
-5.83864e-13
4.66695e-13
1.49439e-11
-4.08726e-13
-1.43915e-11
0
4.45377e-13
4.02518e-13
-3.48938e-13
1.40357e-11
6.69363e-14
-1.45707e-11
-2.83018e-13
3.46064e-13
6.53503e-14
0
4.44611e-13
1.72396e-13
5.7683e-13
4.07773e-13
8.76147e-12
-1.53644e-13
-2.06016e-11
2.87446e-13
1.12276e-11
-2.96402e-13
2.84388e-11
1.29892e-11
-1.59254e-11
-6.31408e-13
-2.5991e-13
-1.2586e-12
1.80509e-13
1.14237e-12
-3.98504e-14
1.48118e-13
1.28761e-11
-9.27232e-13
-7.99296e-13
1.37582e-11
2.68648e-13
-2.22471e-13
1.61071e-11
1.64619e-11
-1.41209e-11
-1.42092e-11
1.99692e-11
3.87346e-13
-1.9654e-11
-3.68699e-12
-2.64452e-13
3.29649e-12
1.44932e-11
-2.94548e-14
-1.44593e-11
-1.4792e-13
0
1.96803e-11
2.05092e-13
-2.00574e-11
8.50351e-14
-3.19573e-13
1.56376e-11
-4.99151e-13
-1.8317e-11
-2.07046e-12
-1.56779e-11
-4.00997e-13
1.57334e-11
3.95859e-13
2.08464e-13
-6.01708e-13
-1.16568e-12
-1.22736e-13
8.36491e-13
0
-1.70117e-11
-1.72734e-11
1.20418e-11
-1.44376e-13
-1.26145e-11
6.42046e-13
-1.33908e-11
3.77909e-14
1.31137e-11
-2.95839e-13
-5.92027e-13
-5.15473e-13
1.19012e-11
-1.89721e-13
-2.52294e-11
-8.1533e-14
1.37284e-11
-1.08015e-16
-1.16495e-11
-1.15444e-11
0
-3.75192e-14
1.73652e-13
-9.49666e-14
-1.15709e-13
1.46247e-11
-3.34046e-13
-1.43763e-11
1.30846e-13
-1.4812e-13
-3.55671e-12
1.28648e-11
1.67872e-11
-3.14531e-14
-2.16714e-13
1.67608e-14
3.68728e-13
-9.63062e-14
4.62847e-14
1.482e-13
2.96112e-13
-4.58883e-14
-1.53243e-11
7.42853e-12
1.51903e-11
-7.07156e-12
-2.60838e-13
1.35445e-11
-2.55743e-14
-1.36207e-11
-7.40034e-13
-2.02363e-11
-1.91544e-11
6.00512e-13
-5.45583e-13
8.86844e-14
8.50774e-13
6.18234e-13
1.1184e-11
1.12483e-11
-5.91781e-13
-3.80257e-13
-1.90893e-14
7.07258e-15
-1.0709e-13
-1.62056e-13
-3.16789e-14
5.70436e-14
1.29255e-11
1.2723e-11
9.76169e-12
5.37069e-13
-9.69124e-12
-1.08248e-12
1.6217e-13
4.61701e-13
-4.13004e-13
1.56998e-13
-7.43766e-14
-1.47892e-13
2.95779e-13
8.33771e-14
-1.64585e-13
1.16444e-13
-1.15841e-11
-3.0529e-13
1.17599e-11
-1.65824e-13
-5.05665e-12
-4.87976e-12
3.40143e-12
-1.2626e-11
-2.83725e-12
1.36099e-11
-1.2609e-11
-2.07979e-13
1.19363e-11
3.52125e-14
3.21365e-13
-1.47868e-13
-1.24238e-11
-1.28935e-11
-4.80943e-13
1.01257e-12
6.06522e-13
1.37134e-11
1.23777e-11
-2.80454e-11
-1.22287e-11
1.37532e-11
0
-6.11426e-13
1.57669e-14
7.48105e-13
4.47381e-14
-2.2761e-13
2.61846e-13
-3.12747e-14
-1.34476e-13
0
0
-5.52456e-14
-4.67143e-13
-1.31896e-11
7.0565e-13
1.33944e-11
-6.49288e-14
-3.41193e-13
1.13803e-13
0
8.58665e-12
-1.36024e-11
-1.02747e-11
1.33417e-11
1.65023e-11
1.16389e-11
-1.65956e-11
-1.25505e-11
-6.4293e-14
1.4804e-13
5.91907e-13
7.84962e-12
1.53261e-13
-7.40965e-12
-1.29339e-11
4.6693e-13
3.04175e-11
-6.83136e-13
-1.75335e-11
0
0
2.71149e-13
1.67085e-14
3.10854e-14
-2.3153e-13
-2.79468e-13
5.10439e-13
6.37059e-14
-5.1404e-13
0
-1.33128e-11
-1.40314e-11
-1.02115e-12
-4.26505e-13
5.13151e-13
4.96406e-13
-1.56744e-11
-1.09302e-13
1.55617e-11
0
1.47897e-13
1.73048e-11
2.66714e-13
-1.62773e-11
-1.64523e-13
-1.50262e-12
-1.67589e-13
4.42528e-13
-2.09187e-14
-1.47881e-13
-4.43663e-13
5.29256e-14
2.32293e-13
5.08608e-13
1.4757e-11
-5.23885e-13
-1.47943e-11
-1.77846e-11
-1.60679e-11
1.62653e-12
1.18312e-11
-3.34846e-13
-2.34851e-13
1.24504e-11
4.08264e-13
9.93738e-14
-5.87538e-13
1.12869e-13
-5.1109e-14
0
-1.41981e-11
-3.0495e-11
-2.48969e-13
1.63489e-11
4.06107e-13
-8.83538e-14
-2.74622e-13
-1.69338e-11
-1.21456e-14
1.68573e-11
-1.47913e-13
-1.72644e-11
-1.52934e-11
1.71565e-11
1.48145e-11
2.1828e-13
2.42957e-13
-6.37503e-13
2.57364e-13
5.91577e-13
-1.33149e-11
-1.33875e-11
1.1924e-13
-1.39011e-13
-1.14146e-13
-3.18064e-14
-1.57655e-11
3.12922e-14
1.57894e-11
0
1.47969e-13
-1.33588e-13
2.87526e-13
5.16652e-14
-6.69721e-13
-1.98209e-13
5.67355e-13
8.18525e-14
-2.8405e-13
-2.95913e-13
-1.40534e-11
-5.93323e-13
1.34541e-11
1.44463e-13
2.64437e-18
-2.40494e-13
3.55826e-13
1.54856e-13
-9.50576e-14
0
-2.95833e-13
4.38506e-14
-1.83114e-12
-2.6882e-13
2.24866e-12
-1.19647e-13
1.57626e-13
3.46454e-14
-3.26041e-14
1.47904e-13
1.24234e-11
2.17502e-13
-1.25623e-11
1.66732e-11
5.6396e-13
-1.71804e-12
-1.73585e-12
-1.49404e-11
1.67765e-11
1.58238e-11
0
-1.28392e-11
-8.20751e-14
1.29879e-11
5.30003e-13
8.92895e-14