/*--------------------------------*- C++ -*----------------------------------*\
  =========                 |
  \\      /  F ield         | OpenFOAM: The Open Source CFD Toolbox
   \\    /   O peration     | Website:  https://openfoam.org
    \\  /    A nd           | Version:  10
     \\/     M anipulation  |
\*---------------------------------------------------------------------------*/
FoamFile
{
    format      ascii;
    class       volScalarField;
    location    "0.7";
    object      gradTy;
}
// * * * * * * * * * * * * * * * * * * * * * * * * * * * * * * * * * * * * * //

dimensions      [0 -1 0 1 0 0 0];

internalField   nonuniform List<scalar> 
46825
(
-2.98172e-13
0
0
1.56152e-11
1.03996e-12
-1.17367e-11
4.46156e-13
-1.22129e-11
1.49078e-13
7.45498e-13
1.31029e-11
1.18533e-14
1.70462e-11
2.85095e-11
1.0612e-13
-1.16965e-11
7.32036e-13
4.10003e-12
3.02266e-13
7.74353e-13
5.13459e-13
-1.8223e-13
4.91902e-13
-1.45529e-11
-1.43288e-12
-2.05671e-13
1.74917e-13
3.48641e-11
-2.06028e-13
-5.85833e-13
-2.61327e-11
-3.38221e-13
-1.66616e-11
-1.29518e-11
-2.78319e-15
2.06513e-13
-2.78375e-14
1.80471e-11
-4.84493e-13
3.15537e-13
1.27276e-11
-4.81572e-14
1.25317e-11
1.48312e-11
4.21788e-14
1.52523e-11
-6.12338e-15
-1.82714e-11
-4.09473e-14
-2.41753e-13
1.34978e-11
1.21725e-11
6.95346e-12
1.30898e-11
-6.30981e-13
1.02506e-12
1.63138e-13
-1.72452e-11
-1.08153e-13
-1.05111e-13
-1.24226e-11
-3.29706e-14
-1.29382e-11
9.19886e-12
1.60373e-13
-1.55933e-11
5.06437e-14
-1.33737e-11
1.11633e-13
2.84099e-13
-6.28292e-13
-1.17175e-11
-1.92429e-11
-1.29875e-11
3.96177e-13
-7.91219e-13
2.28808e-14
3.4872e-13
6.15494e-14
-3.83379e-13
-1.46552e-13
3.56492e-13
-3.65813e-14
-1.02668e-11
2.53838e-14
-1.61533e-14
-4.04918e-13
1.31312e-11
4.474e-14
2.02029e-14
0
-1.49096e-13
1.19167e-11
-7.43695e-13
0
0
2.9749e-13
-1.04278e-12
0
-2.98252e-13
0
1.49346e-13
0
-1.59682e-11
1.17858e-11
0
-7.4618e-13
-1.20965e-11
0
-1.25341e-11
2.91633e-15
-5.69856e-15
8.45509e-12
5.34656e-12
-4.3378e-12
-4.26309e-12
-2.61727e-13
-2.3982e-11
-1.70891e-13
-1.27919e-11
3.11807e-14
-3.78106e-13
-3.32738e-11
2.16656e-11
-1.78731e-11
-9.79446e-13
-9.43289e-13
8.81714e-12
1.04243e-13
-1.44286e-13
-2.13446e-13
1.61704e-13
1.31587e-12
-5.76409e-13
2.74277e-12
2.24128e-12
4.00401e-13
-5.33984e-13
1.00023e-12
7.79494e-14
-7.61812e-14
9.20814e-14
3.13431e-11
-2.15691e-13
2.92102e-11
2.91304e-11
6.12738e-13
2.58856e-13
-1.23142e-13
3.54391e-13
-1.65343e-14
1.22371e-11
-3.75381e-13
1.25906e-13
-3.00351e-11
-2.98074e-11
4.37193e-11
3.23969e-13
-1.05148e-12
-3.70002e-14
3.37674e-13
-5.18724e-13
-3.09901e-13
-6.82798e-13
-4.28076e-13
-2.38508e-13
-4.47363e-11
2.62546e-11
-2.08279e-11
1.97463e-13
-5.24886e-12
-1.202e-11
-2.67833e-11
-4.24274e-12
-2.79544e-11
-1.05323e-12
-1.88144e-13
-2.46286e-11
1.08264e-13
4.48159e-13
3.0193e-14
5.17091e-13
-7.85853e-13
8.22704e-13
8.15211e-12
4.22567e-12
-7.8533e-13
-7.2227e-12
2.1152e-11
-1.39935e-11
5.07349e-12
4.48054e-13
-4.47996e-13
1.49228e-13
4.47528e-13
-1.28294e-11
4.47715e-13
1.37398e-11
0
-1.38783e-11
-3.55009e-11
-1.49274e-13
-2.20743e-11
-1.19217e-12
1.71407e-11
1.19237e-12
-3.60617e-11
5.81695e-12
1.49293e-13
2.98382e-13
-1.46842e-11
4.10833e-13
-2.19471e-11
-2.5399e-11
-1.14486e-11
-3.67872e-12
-2.67592e-11
-4.16517e-13
-2.06332e-13
2.47442e-13
3.40895e-11
2.29886e-13
-3.00671e-11
1.84533e-10
3.03722e-10
2.56455e-10
3.05737e-10
-2.41897e-11
4.48129e-13
1.6448e-11
-3.51888e-12
1.03367e-13
5.96235e-11
-1.89549e-07
-2.45082e-07
-2.51163e-07
-2.14169e-07
-6.67145e-09
-4.49415e-13
-2.12433e-11
-1.64806e-11
-9.16074e-14
-6.31571e-11
-1.35894e-08
4.37149e-08
4.64396e-08
3.49457e-08
-1.29775e-09
-4.83336e-13
-1.65348e-11
-1.15707e-13
2.88038e-11
6.9681e-11
4.09662e-09
-1.04154e-08
-1.08494e-08
-8.72696e-09
3.86666e-10
1.98179e-12
2.11232e-11
1.67387e-13
-6.41097e-11
-2.96772e-11
5.76517e-08
-1.24536e-07
-1.29323e-07
-1.04372e-07
4.34299e-09
-2.30799e-12
1.22313e-11
-2.34419e-13
7.59589e-11
1.53746e-13
4.54592e-09
2.552e-08
2.62373e-08
2.3537e-08
-1.14369e-11
9.23132e-13
6.69722e-13
5.83028e-14
-4.01349e-11
-6.27228e-12
2.62201e-11
6.42216e-13
-1.94085e-11
5.39561e-13
2.0061e-12
-6.91671e-13
-1.19304e-11
-1.49171e-13
0
0
-1.02786e-11
-5.06617e-12
1.96692e-11
3.87341e-12
0
-5.22418e-12
-4.47561e-13
-2.52974e-11
2.00639e-11
-5.9072e-13
-7.92447e-12
-8.79132e-12
-1.99256e-11
-1.49652e-11
-8.86059e-12
3.12173e-12
-1.48854e-13
2.76357e-14
4.68361e-11
-9.72259e-12
1.12669e-08
9.36423e-09
9.29282e-09
9.53469e-09
6.90608e-09
-1.17109e-12
-1.51437e-11
2.77224e-11
-2.7227e-11
-3.3126e-09
5.77283e-05
5.97334e-05
6.00867e-05
5.9371e-05
5.92014e-05
7.0292e-09
-1.49659e-13
2.47364e-13
-3.22929e-11
-2.32632e-07
-0.90031
-1.39067
-1.39787
-1.3801
0.165555
1.94424e-08
2.31193e-12
-1.60311e-11
-5.30139e-11
-2.38615e-09
-0.00600181
-0.0203466
-0.0212032
-0.0193268
-0.0116087
9.26673e-10
1.32411e-11
-1.0511e-12
2.7784e-11
5.35509e-09
0.000544945
0.00132848
0.0013056
0.00130122
-0.0128419
-1.49307e-10
1.30767e-11
1.31066e-11
2.55845e-11
1.00053e-08
0.0325103
0.0586623
0.0593467
0.0587922
-0.0147164
-3.5163e-09
-1.40338e-11
5.74607e-13
4.60873e-11
5.88072e-07
-0.0193479
0.946405
0.951001
0.935647
-0.0462453
-3.19064e-08
-1.37816e-13
-2.22265e-13
4.48543e-13
9.64522e-08
2.99619e-06
2.68735e-06
2.65902e-06
2.73182e-06
1.65152e-06
3.15736e-11
1.25389e-12
-1.48808e-13
-2.2583e-11
1.07748e-11
-1.46659e-12
1.01062e-11
7.90932e-12
1.46668e-12
1.65332e-11
4.01232e-12
4.46502e-13
-2.97237e-13
6.08434e-12
-7.20325e-12
-5.96925e-11
-7.01325e-11
-4.40979e-11
-5.19677e-11
1.04338e-11
-2.5826e-11
0
3.33553e-12
1.77909e-13
-7.09244e-10
-2.09126e-07
-3.16925e-07
-3.03095e-07
-3.37123e-07
1.5381e-08
-1.8751e-11
-1.28977e-11
4.17735e-13
3.97707e-11
-1.9581e-06
0.0978973
-1.0059
-1.00857
-1.00426
0.0161583
1.59013e-08
-1.34171e-11
-3.27532e-12
1.99531e-09
0.0227695
6.84921e-06
1.30908e-11
-1.28821e-11
9.08002e-10
0.00060458
1.24412e-06
3.16033e-11
2.34217e-13
-1.43672e-10
0.000102186
-1.3426e-07
-4.22811e-13
1.2607e-11
-2.17297e-09
-0.00100049
-3.96917e-06
-1.90869e-11
-1.25424e-11
1.45508e-10
0.00104123
2.03343e-06
-1.3409e-11
-9.06355e-13
-3.30864e-13
6.63038e-07
0.000704066
0.000893066
0.000895383
0.000885197
-5.27753e-05
4.13338e-10
1.06294e-11
1.11465e-11
8.90069e-13
-1.8069e-11
3.32333e-11
5.31936e-11
4.23529e-11
3.33792e-11
7.05174e-12
1.03865e-11
2.423e-11
1.59071e-11
1.67879e-11
-1.36842e-11
-2.53972e-11
-4.1141e-11
-2.98771e-11
-2.39318e-11
4.11754e-12
4.01139e-12
-1.4871e-13
-2.93491e-13
1.64906e-11
-7.42105e-10
-1.19865e-07
-3.38839e-07
-3.17541e-07
-3.5974e-07
1.5544e-08
-7.35812e-13
-2.05399e-13
-1.62599e-11
1.24711e-11
-2.0577e-06
-0.849768
-1.05066
-1.05357
-1.04758
0.017312
3.0623e-08
-1.45668e-11
1.62905e-13
2.16949e-09
0.0283367
1.47013e-05
1.81565e-11
4.0372e-13
1.30669e-09
0.000780329
1.41259e-06
2.96373e-11
-1.35791e-11
-1.2989e-10
0.000159596
-1.77469e-07
-3.03505e-11
-2.06306e-13
-3.03122e-09
-0.00138458
-5.25173e-06
-2.49597e-11
-9.28555e-12
2.4024e-10
0.00114475
2.29022e-06
1.23681e-11
3.29206e-13
-3.56756e-13
6.87956e-07
0.000723256
0.000977756
0.000981148
0.000962956
-5.61107e-05
4.99219e-10
2.36023e-11
2.27464e-11
9.65253e-12
-2.264e-11
2.71179e-11
4.68996e-11
4.93525e-11
2.66826e-11
-2.85211e-11
-1.64864e-11
1.27879e-11
3.04936e-11
2.52768e-11
-2.6064e-11
-2.59915e-11
-3.40818e-11
-2.90242e-11
-6.24062e-12
7.35911e-13
1.69518e-11
-1.48796e-13
1.22458e-11
4.41377e-11
-7.86764e-10
-1.07144e-07
-3.1569e-07
-3.02037e-07
-3.46397e-07
1.56149e-08
1.47297e-11
-3.29272e-13
-1.82984e-12
1.1007e-11
-2.07306e-06
-0.851347
-1.05282
-1.05569
-1.04939
0.0173515
3.1244e-08
-1.52039e-13
3.88094e-13
1.97161e-09
0.0284789
1.47361e-05
8.59496e-13
-1.57955e-11
1.28082e-09
0.00078125
1.32928e-06
-8.74206e-14
-6.68432e-13
-1.97059e-10
5.4158e-05
-2.3456e-07
-8.74272e-14
-8.67727e-13
-2.94422e-09
-0.00149156
-5.42302e-06
6.50361e-13
4.68143e-13
1.96914e-10
0.00114797
2.29081e-06
-9.48762e-15
3.21e-13
-2.38677e-13
6.89875e-07
0.00072523
0.000981453
0.000984926
0.000966214
-5.64394e-05
5.0929e-10
-6.26464e-13
-2.97522e-13
-1.4863e-13
2.25127e-11
2.61191e-11
2.36769e-11
3.75367e-11
2.49578e-11
6.91565e-12
-4.31093e-12
2.97578e-13
2.97648e-13
-2.70758e-11
5.89353e-12
-2.71704e-11
-3.6273e-11
-4.82622e-11
-2.99159e-11
2.03226e-11
-1.96387e-11
1.48866e-13
-1.61603e-11
-2.65624e-11
6.29751e-11
-1.05883e-07
-3.16876e-07
-3.00262e-07
-3.4563e-07
1.54268e-08
-2.0125e-11
1.82588e-13
-2.8761e-16
-5.82985e-13
-2.04265e-06
-0.851341
-1.0529
-1.05581
-1.04954
0.0173855
3.11169e-08
-2.32925e-14
3.55513e-12
2.02192e-09
0.0284385
1.4727e-05
1.23507e-13
-2.65556e-13
1.31632e-09
0.00078118
1.30649e-06
-1.11469e-14
1.23801e-11
-1.95103e-10
5.41757e-05
-3.01565e-07
-1.18543e-13
-2.8943e-13
-2.97268e-09
-0.00149153
-7.43963e-06
-3.97285e-13
-1.03584e-13
2.33348e-10
0.00115468
1.07618e-06
-3.16528e-15
-2.35481e-13
2.71196e-13
6.88204e-07
0.000725476
0.000981883
0.000985335
0.000966608
-5.64377e-05
4.16931e-10
1.51394e-13
1.48836e-13
-1.23431e-11
-3.97511e-12
1.66978e-11
2.05153e-11
4.14643e-11
3.1363e-11
9.71727e-12
4.90814e-12
-1.48862e-13
-1.68235e-11
2.53e-12
-1.47421e-13
-4.74189e-11
-6.38258e-11
-3.45874e-11
-5.43774e-11
-3.97864e-12
1.48838e-13
0
-3.08111e-11
-4.10897e-13
4.41938e-11
-1.13574e-07
-3.28529e-07
-3.14894e-07
-3.57283e-07
1.56499e-08
-9.24117e-13
5.30093e-13
1.3042e-11
4.747e-13
-2.03607e-06
-0.851007
-1.05221
-1.05505
-1.04881
0.0173388
3.12067e-08
3.21693e-13
1.40946e-11
2.17676e-09
0.028428
1.46101e-05
3.68404e-13
8.61328e-14
1.27354e-09
0.000780687
1.27299e-06
-1.28647e-11
-2.28814e-13
-1.61785e-10
5.42459e-05
-2.91676e-07
-2.14188e-11
-1.3178e-11
-2.99139e-09
-0.00149072
-5.93369e-06
1.301e-11
5.61427e-14
2.3044e-10
0.00114825
4.90377e-06
2.14103e-11
-4.53041e-15
2.6601e-11
6.88944e-07
0.000724941
0.000979527
0.000982879
0.000964684
-5.61804e-05
1.71748e-11
-1.23712e-13
1.48893e-13
-3.42166e-12
2.79902e-11
2.54401e-11
4.00813e-11
5.23807e-11
2.8493e-11
3.83039e-12
2.33599e-11
0
0
7.44302e-13
-9.14636e-12
-2.47803e-12
-1.27748e-11
0
8.74327e-13
-4.42456e-12
4.16873e-12
1.4896e-13
2.1506e-14
1.10269e-13
4.16549e-11
-3.41464e-08
-5.61435e-08
-3.88888e-08
-9.08406e-08
1.2951e-08
4.07022e-13
-3.07057e-13
1.22792e-11
3.21618e-11
-2.01897e-06
-0.837459
-1.02197
-1.02418
-1.01946
0.0164624
2.77177e-08
-5.71065e-13
4.84267e-13
5.40025e-10
0.0241186
1.03742e-05
1.10982e-13
-1.24367e-11
1.53773e-10
0.000609692
7.56669e-07
3.93717e-13
-1.57824e-11
-3.52466e-12
5.24106e-05
-1.32835e-07
2.64789e-13
3.29952e-13
-6.52296e-10
-0.00105555
-3.02534e-06
-3.64891e-13
1.48845e-11
1.58332e-10
0.00110638
1.77619e-06
-1.01977e-13
-2.04025e-13
1.10646e-12
6.7762e-07
0.000619833
0.000707711
0.000708727
0.000707945
-5.01403e-05
4.74273e-10
1.1075e-13
-1.4893e-13
2.97625e-13
8.6991e-12
-2.15632e-11
-4.93453e-12
-2.32216e-12
-5.53654e-12
-2.49188e-11
-2.9768e-13
0
3.72357e-12
2.00974e-11
1.47498e-13
4.08074e-12
-4.93556e-12
4.20967e-12
-3.39551e-11
0
1.93559e-12
1.48968e-13
-1.32607e-11
2.46791e-11
2.90412e-11
4.72565e-10
4.50043e-10
4.58219e-10
4.2827e-10
-2.53379e-12
-3.01098e-12
2.91581e-13
-1.58294e-11
-2.08361e-12
-1.25483e-07
-0.000213937
-0.000220831
-0.000221147
-0.000220621
-0.000197414
4.47132e-10
1.20769e-11
1.40871e-13
2.93485e-11
1.62238e-06
-6.74727e-09
-6.73034e-14
-3.45508e-13
-3.44809e-11
5.6377e-08
-4.95632e-10
-1.25844e-11
-1.34165e-11
2.47352e-11
-8.31539e-09
6.44793e-11
-4.0072e-13
5.80109e-13
-2.24165e-11
-8.2069e-08
1.76656e-09
1.34621e-13
1.33083e-11
-2.65113e-12
-7.42918e-06
5.71892e-09
7.65643e-13
-3.15902e-13
8.38925e-12
2.0973e-08
-7.05503e-07
-7.39438e-07
-7.41567e-07
-7.31531e-07
-2.59688e-07
7.52787e-12
5.60191e-13
1.48953e-13
-1.33946e-12
1.47452e-12
0
2.9028e-13
-1.40786e-11
-1.45704e-13
6.48801e-12
0
1.48964e-13
-4.46831e-13
0
0
-8.72492e-13
-2.19996e-11
-2.82234e-11
4.07172e-12
-1.40027e-11
7.146e-12
1.19166e-12
1.56957e-14
2.98138e-13
-2.72977e-11
-2.92748e-13
-2.57806e-11
-3.81155e-12
-2.31129e-11
-1.93551e-11
1.70224e-11
1.01791e-12
6.48372e-13
0
6.11983e-13
6.10962e-13
-5.11721e-13
2.26124e-13
3.39412e-11
-1.95547e-11
6.02678e-13
-1.47263e-11
1.74561e-11
2.86881e-11
6.42054e-11
-3.97773e-13
-5.34474e-13
-3.24702e-13
-5.30243e-11
-1.12023e-13
-2.62492e-13
1.43041e-11
-1.69921e-11
2.40415e-11
-1.63965e-14
-3.44921e-11
-1.39307e-11
1.88564e-11
2.92563e-13
-4.91446e-13
3.37018e-11
-1.30143e-11
-1.89419e-13
-2.91268e-11
-1.06321e-10
8.77553e-13
1.47325e-11
-1.88223e-11
2.95653e-11
-1.12414e-11
2.17587e-13
1.27989e-11
1.46546e-12
1.71208e-11
-7.31297e-14
3.73597e-11
1.32742e-11
1.48945e-13
5.20859e-12
-1.47362e-13
0
4.05206e-12
5.06501e-12
4.07096e-12
-7.36742e-13
-2.85757e-11
0
0
4.80752e-11
-4.27224e-12
-4.35814e-12
1.58996e-11
-1.51771e-11
-6.39222e-12
8.84017e-13
-7.44263e-12
2.97885e-13
-4.92623e-14
3.33949e-11
4.32877e-13
2.92689e-13
1.69847e-11
-1.58265e-11
0
3.01245e-11
1.55316e-11
5.85606e-14
-6.84649e-14
5.95729e-12
-6.30602e-11
-6.09898e-11
-1.22559e-11
2.18602e-11
1.76641e-11
-4.26321e-11
3.10117e-12
-3.10703e-13
-9.57478e-14
-2.92689e-13
0
1.05788e-11
-2.70807e-13
1.22089e-13
0
5.72085e-11
2.26394e-13
1.12064e-13
-6.7328e-13
0
-6.02629e-11
8.26238e-14
1.32154e-11
9.7605e-14
-5.55649e-12
-5.888e-13
3.44127e-11
-1.87706e-11
1.35209e-11
5.88468e-12
8.46203e-13
-3.4971e-11
-1.36007e-11
1.33421e-11
-4.4801e-12
0
6.96974e-12
2.1968e-13
9.39254e-12
8.09544e-12
-1.442e-11
0
1.87966e-11
2.97867e-13
-3.5713e-12
-1.90022e-11
0
1.53196e-11
1.06949e-11
-4.35757e-13
-1.91479e-12
-4.31553e-12
5.95761e-13
5.95711e-13
4.76262e-12
0
4.93821e-12
1.27164e-11
-4.04614e-12
-4.35738e-13
-1.28162e-11
-2.21769e-11
1.69782e-11
8.98754e-13
6.26811e-13
-4.26482e-13
-4.44955e-13
1.25944e-11
-2.93136e-13
-5.84976e-13
-1.787e-11
-2.3299e-11
1.04767e-13
-3.00012e-13
-5.95769e-13
-5.81712e-11
-7.78686e-13
1.30241e-12
1.18199e-12
1.17784e-12
3.70158e-11
-3.01977e-13
-4.71101e-12
-1.39008e-11
-2.22964e-14
-2.90596e-12
1.70335e-13
-2.2663e-13
6.99889e-14
-2.69442e-11
-2.94955e-12
3.79719e-13
-1.22877e-11
1.37175e-11
2.66741e-11
-5.6144e-11
4.63153e-14
1.38082e-11
-3.23955e-13
5.84978e-13
1.76675e-12
1.99505e-12
5.78666e-14
1.46985e-11
-5.88444e-13
-7.60826e-11
-1.75691e-12
-1.35953e-11
2.47998e-13
1.7623e-11
8.18602e-13
2.39819e-12
-4.39619e-13
4.77207e-12
-1.34979e-11
-7.02853e-12
-2.45339e-11
2.87134e-13
-1.48928e-11
-9.22534e-12
3.53464e-12
5.80911e-13
-5.77959e-12
-4.47917e-12
-1.58295e-11
1.53171e-11
2.08325e-12
4.46789e-13
2.82973e-12
4.46497e-13
1.47319e-13
5.66616e-12
-2.31301e-11
4.33689e-13
-1.58361e-11
4.12496e-12
2.67902e-12
-1.4447e-11
-1.55889e-11
2.80355e-12
-4.19483e-13
1.60924e-13
-2.28165e-11
9.58149e-12
1.54998e-11
-1.00328e-11
1.70878e-13
-1.49581e-11
1.99959e-12
-2.08499e-12
5.11544e-11
6.6968e-13
1.13596e-11
-1.77289e-12
-3.88666e-11
3.51449e-11
0
-3.30815e-14
1.82604e-11
-7.53075e-13
5.81142e-13
2.82751e-13
-1.38314e-13
1.72494e-11
1.4548e-13
2.94948e-12
-2.59679e-11
-1.9791e-13
-5.07501e-13
9.11412e-13
-1.77288e-11
2.50218e-11
3.79172e-13
-1.85479e-11
-1.16978e-12
0
-3.66993e-13
1.18668e-11
-1.34985e-11
4.64829e-11
1.9626e-12
-2.67725e-11
-1.26918e-11
-3.79407e-13
-4.58394e-11
-3.03052e-11
-8.6478e-12
7.69167e-12
1.52665e-11
-2.69894e-11
2.06438e-11
2.81704e-11
-1.178e-11
1.32549e-11
-7.43998e-12
0
-2.0337e-11
-1.44546e-13
3.00658e-11
1.45267e-13
1.4729e-13
2.08327e-12
1.25106e-11
1.40004e-11
9.526e-12
1.47385e-13
3.34586e-12
8.25493e-12
5.06876e-12
2.03656e-12
3.83195e-12
0
-2.48746e-11
-1.27884e-11
-9.24054e-12
1.70927e-12
-1.0576e-12
-9.30357e-12
2.93072e-13
1.8621e-12
-7.5278e-12
-9.25585e-12
-1.28334e-11
-1.3358e-11
-2.08419e-12
-3.51429e-12
-9.21145e-13
3.17723e-13
0
5.88424e-13
-1.79973e-11
-3.01753e-13
1.19377e-11
1.33503e-11
9.11151e-13
-5.63394e-11
-4.57179e-13
-1.28263e-13
1.36889e-13
6.76015e-13
-5.30449e-11
-5.06892e-14
-3.7199e-13
1.27056e-11
2.93069e-13
0
-1.94323e-13
1.48489e-13
-2.7417e-13
-3.36496e-11
-5.58953e-11
3.13075e-14
2.49446e-13
3.46865e-13
3.26451e-11
1.35419e-12
1.8422e-12
-2.57042e-13
3.4146e-13
1.05912e-12
-1.15273e-12
-9.72779e-12
6.58366e-12
2.78503e-12
8.67053e-12
8.99562e-12
-1.79247e-13
-8.42668e-14
-1.29585e-11
3.64583e-11
5.15741e-12
-3.78176e-12
-2.46168e-11
1.73765e-12
-3.9271e-12
5.15734e-12
2.60432e-11
2.97897e-13
0
0
1.10642e-11
1.56002e-11
-4.35713e-12
-8.27827e-12
6.70582e-12
2.95014e-13
5.658e-12
1.48985e-13
1.92213e-13
-9.29157e-13
4.29033e-13
2.06736e-11
-1.26584e-12
-3.86111e-12
6.64772e-13
-3.27684e-13
2.64522e-11
1.48713e-13
1.58409e-14
8.92868e-13
-1.3221e-12
3.24559e-11
3.28193e-11
2.36659e-12
-2.42626e-11
-2.10613e-11
-2.70944e-11
-4.63744e-14
9.45155e-14
-7.92964e-13
5.70409e-11
2.49017e-13
-1.87184e-13
-2.88695e-13
3.43845e-11
-6.39307e-13
-7.40953e-13
1.06644e-13
-8.22548e-15
-3.42918e-11
0
-2.47664e-11
1.77272e-14
-3.26571e-13
-4.18674e-14
-4.67824e-11
2.55004e-11
-1.29257e-13
-5.73335e-14
2.85545e-13
-2.92666e-12
1.01593e-11
-1.22664e-11
9.75346e-14
5.31953e-12
6.03348e-13
-2.26263e-12
1.7245e-11
2.14096e-11
-2.56945e-11
-2.77597e-11
-9.80016e-12
-4.69751e-13
-1.4898e-13
-1.042e-12
1.4749e-13
0
-1.45213e-13
1.45212e-13
2.78391e-11
2.02039e-11
0
1.19188e-11
1.2811e-11
0
5.60672e-12
5.82853e-13
0
0
-4.95274e-12
-5.90026e-12
4.31875e-12
1.04302e-11
-8.9165e-12
2.32988e-13
3.27641e-11
-3.89881e-11
-3.23609e-11
3.7066e-11
3.07106e-11
5.01865e-14
-1.09008e-11
3.37897e-13
-1.26517e-11
-2.97779e-13
-9.39107e-11
5.22281e-11
6.28595e-11
2.08818e-12
1.63682e-11
-3.01326e-11
-1.34566e-12
-2.30133e-11
9.47403e-12
7.80204e-13
-1.85276e-13
1.72679e-12
-1.69133e-13
-2.12467e-15
-2.92675e-12
-1.13307e-11
-4.63393e-13
1.28167e-11
-4.03703e-14
5.88307e-13
1.33369e-12
-3.96235e-11
-1.34651e-11
-3.81224e-14
1.48784e-12
-6.33151e-11
5.12753e-11
-2.09386e-13
-1.2359e-13
4.44911e-13
-1.05827e-12
-1.16498e-11
1.32029e-11
4.43516e-13
-3.90184e-15
-3.85005e-11
1.38587e-12
1.87949e-11
7.97393e-12
-2.2027e-13
9.66602e-12
6.51359e-13
1.53344e-13
4.47002e-13
-3.51369e-11
3.68689e-12
4.80645e-12
0
0
6.26256e-12
-6.34092e-12
-2.91809e-11
2.98001e-13
0
5.06227e-12
4.86644e-12
5.81818e-12
2.89397e-13
-5.78735e-13
4.79777e-12
1.03179e-12
-8.93382e-13
-1.74321e-11
-5.0858e-14
2.98173e-13
2.52544e-13
-3.11216e-11
-8.78508e-13
-2.6378e-11
-3.53916e-11
3.72251e-11
-2.98717e-13
-1.34876e-11
1.79592e-13
1.93606e-11
-6.83869e-14
4.14278e-11
8.65484e-11
6.42841e-11
4.52704e-11
-2.73478e-12
3.64139e-12
1.67607e-12
-5.82803e-13
-1.79475e-11
-7.64526e-11
-2.02031e-11
1.3063e-11
-1.22272e-13
-1.17123e-12
0
1.03612e-13
2.6459e-12
6.44646e-13
2.66697e-11
0
-4.81465e-13
-3.69828e-12
3.39584e-13
-2.65973e-11
0
-2.39085e-14
1.33912e-11
-1.50426e-11
2.94202e-13
6.21969e-11
-3.84012e-13
1.53925e-11
1.62457e-11
3.45716e-11
-2.08776e-11
1.52488e-12
-1.96061e-11
-2.48457e-11
2.14951e-11
2.83164e-11
-4.66965e-14
1.56277e-11
3.08421e-11
1.22066e-11
3.38926e-12
1.3664e-11
1.4466e-13
1.73592e-12
4.65148e-12
-1.65036e-11
1.63745e-12
3.874e-12
-5.95845e-13
3.1267e-12
-1.9315e-11
0
-1.44589e-13
-1.44574e-13
-5.95749e-12
-2.94722e-13
-5.80693e-12
0
2.11201e-12
1.23143e-11
-1.94107e-11
2.95636e-11
-3.08738e-13
-3.55753e-13
1.43826e-13
-3.00231e-11
4.28856e-11
-9.14069e-13
7.80658e-13
-6.13588e-11
1.22764e-12
-1.32242e-11
-8.19764e-11
2.12726e-11
-1.23658e-11
4.45081e-11
-3.01958e-11
1.65589e-11
-2.35364e-12
3.29658e-11
-4.0583e-12
1.50544e-12
1.22911e-12
-1.13496e-13
-4.41794e-13
0
-6.611e-13
-1.65585e-11
2.41397e-14
-5.21692e-14
1.1227e-11
5.33107e-13
-5.57485e-12
-1.03295e-13
-3.2345e-13
0
-2.68405e-13
-1.3792e-13
-1.07924e-13
5.88444e-13
-1.67432e-12
-9.62927e-13
5.33872e-12
2.07916e-14
-2.37204e-11
-3.7521e-11
-9.81125e-12
-1.02554e-12
-3.88977e-12
-9.62852e-12
-5.85656e-13
-4.8775e-13
4.12129e-13
0
-4.46582e-12
1.65008e-11
-2.33904e-11
-4.77015e-12
-4.19186e-12
-4.64887e-12
-2.62239e-11
-1.81607e-11
0
0
-3.42551e-12
-6.04701e-12
2.07988e-11
-1.57688e-11
1.54778e-11
3.83789e-11
-7.51827e-12
5.95772e-13
1.49057e-12
3.17601e-13
1.12937e-12
3.64882e-11
2.07201e-11
-3.56687e-11
2.69779e-11
3.80073e-11
1.77791e-13
-1.90153e-11
-2.66559e-11
3.0305e-12
-5.95749e-13
-3.21029e-11
4.43846e-13
2.53628e-11
0
0
1.64176e-11
1.96293e-11
-1.56458e-11
-5.52248e-13
-1.52555e-13
1.56548e-11
-2.75989e-11
1.30434e-11
-2.68402e-12
-3.48866e-13
3.00815e-11
2.71422e-11
4.46337e-13
4.32506e-13
1.23372e-12
0
-2.42652e-11
5.38173e-14
-3.36157e-13
-1.38626e-12
0
2.48338e-11
-1.29847e-11
-2.27643e-11
0
-6.07646e-13
-2.92777e-13
-2.67194e-13
1.67686e-13
-1.43982e-13
8.39911e-12
-1.11922e-11
-4.39568e-13
-2.26081e-11
-5.39084e-11
1.11276e-11
-7.44352e-13
1.29742e-11
2.26566e-11
-8.78569e-12
-1.47386e-13
1.45353e-13
-1.44632e-13
4.04966e-12
5.6687e-12
5.15833e-12
4.91392e-12
1.49064e-13
0
-7.45265e-13
8.4175e-12
2.726e-11
2.14724e-11
-1.4507e-13
-9.61747e-12
1.65346e-11
3.84588e-11
1.50653e-11
-1.7399e-11
2.87873e-11
3.20017e-14
2.08798e-11
5.13825e-11
1.65207e-12
-3.35165e-11
1.69359e-11
2.83155e-11
1.51767e-11
1.20709e-11
-3.00761e-11
-3.58591e-13
-1.00288e-12
-5.34597e-11
-9.18257e-13
4.25485e-11
1.58398e-12
-3.22951e-11
-1.22694e-11
3.38181e-11
-7.25511e-13
2.31904e-12
3.09474e-11
-9.10657e-15
-1.28532e-13
6.4206e-13
1.17918e-12
-1.01465e-14
1.27114e-11
-1.62e-11
-3.52083e-13
1.22914e-10
-3.01385e-14
3.70033e-13
-2.49809e-11
-2.94245e-13
3.31117e-13
-2.16329e-13
-1.77599e-13
1.11579e-13
8.82672e-13
3.10041e-12
-3.54271e-13
-3.7803e-13
-2.6451e-12
-2.99654e-11
-2.33996e-11
2.48337e-11
3.65854e-13
-1.39278e-12
-2.91481e-13
-2.56063e-12
5.34789e-13
-1.46378e-12
-1.50652e-11
2.93613e-11
1.03322e-11
2.79747e-11
0
-1.82767e-11
1.99613e-11
3.8376e-12
-6.70687e-12
-1.6409e-12
0
2.98549e-13
-2.07518e-12
-4.55175e-12
5.85517e-13
0
1.46796e-13
-2.07485e-11
-2.13477e-11
-1.19423e-11
-2.27068e-11
-1.10986e-11
-7.11429e-12
8.0173e-12
1.8408e-13
5.38032e-13
3.49876e-11
-5.67619e-11
-5.00244e-11
7.83716e-13
-8.1157e-13
-5.96248e-13
8.85885e-11
-1.62446e-12
2.3816e-11
1.45265e-12
-4.53364e-11
7.03899e-11
3.28944e-11
1.23792e-11
1.03929e-11
-2.75515e-11
0
-2.86849e-11
-1.3087e-13
-7.62696e-14
-6.71899e-13
3.37262e-12
2.92681e-11
2.04555e-13
-2.50056e-12
3.27208e-11
-5.82629e-13
3.93394e-13
-2.50151e-14
-1.91175e-11
-6.6233e-12
4.64463e-13
-2.52864e-11
1.12111e-13
2.90158e-12
2.65136e-12
-9.29149e-13
2.65379e-11
4.44368e-14
1.87752e-11
-7.6902e-13
3.8251e-12
-1.0083e-11
-3.07536e-11
-6.07259e-12
3.34836e-12
-8.7655e-13
-2.44923e-11
-1.22483e-13
1.19423e-11
0
0
-1.05682e-11
5.85444e-13
1.46363e-13
-1.46785e-13
-1.64485e-11
-1.10463e-11
0
-1.35783e-11
-1.07512e-11
-1.3396e-12
2.96481e-13
1.48086e-13
-1.48081e-13
-4.2987e-12
-5.95344e-13
0
1.49223e-13
-1.37005e-13
8.95106e-12
-1.34028e-12
2.49209e-11
4.5789e-14
9.18879e-13
-1.10332e-14
-6.22611e-14
-3.32489e-11
8.14836e-14
1.3961e-11
-2.53965e-11
1.62267e-12
-4.66508e-11
8.29206e-11
-3.55022e-11
3.60507e-11
1.17451e-11
4.48579e-11
-1.49964e-13
6.96878e-13
2.59888e-11
2.26991e-12
1.41244e-12
-2.6718e-13
-3.99522e-13
-4.0228e-11
2.69233e-13
-2.55392e-11
8.04598e-14
-6.51675e-13
3.94793e-11
-1.49134e-13
1.39697e-12
6.09244e-14
-1.69202e-11
3.83408e-13
-2.69822e-12
-1.107e-12
-2.17526e-13
7.4681e-14
-8.89476e-13
-6.20252e-11
7.38953e-13
1.24596e-11
1.41936e-11
1.12131e-12
2.55731e-11
-1.1692e-11
1.34748e-11
-1.91948e-13
-1.69293e-12
-9.4308e-12
1.92876e-13
-2.70559e-13
-2.686e-12
-2.94107e-11
5.05923e-12
-2.51958e-12
0
-1.48084e-13
-4.2985e-12
7.44113e-12
0
-1.22392e-11
1.23568e-11
8.93367e-13
-5.9451e-13
-1.03854e-12
-4.74577e-12
4.44918e-13
6.08266e-12
-3.86407e-11
-2.97762e-13
-2.97756e-13
1.26337e-11
4.21434e-13
-3.59193e-12
-1.54854e-12
9.28543e-12
2.89399e-11
-2.57349e-11
1.46596e-12
-2.48488e-11
-3.43085e-13
1.18135e-11
-2.97143e-13
-2.86224e-11
1.2926e-11
5.56962e-12
-3.89232e-11
1.29676e-11
-3.1225e-11
-8.02424e-12
4.20603e-13
1.26573e-11
0
3.65292e-11
-8.59025e-12
-1.0369e-12
-1.52508e-11
1.62602e-12
1.81123e-12
5.64683e-11
1.91285e-13
-1.23571e-11
1.18708e-12
1.49711e-11
1.35157e-12
1.36867e-12
-3.34377e-11
9.29048e-13
7.19893e-12
-2.31264e-11
1.04164e-13
-1.23892e-11
-8.90667e-13
1.20208e-12
3.73863e-11
-1.02572e-12
6.06784e-12
-1.87869e-12
-2.33843e-11
-7.35654e-13
-2.51693e-13
1.51857e-13
-2.96549e-13
1.11687e-12
-3.79093e-11
1.06208e-12
2.35282e-11
4.13652e-13
5.34739e-11
-3.95789e-11
-4.04866e-13
2.22888e-11
-1.34249e-12
-3.4757e-11
1.92908e-11
-2.11758e-11
1.1074e-12
-7.8943e-13
1.10605e-10
3.9584e-11
9.96531e-14
-4.47633e-13
1.01448e-11
-3.4821e-13
5.55626e-13
3.18823e-11
-3.9907e-11
2.66462e-11
-2.85743e-11
7.56001e-15
-6.78264e-13
-2.21819e-11
-5.50784e-12
6.38866e-12
1.48327e-13
1.92774e-11
-1.48296e-13
1.79499e-11
5.94417e-13
0
-5.95625e-13
5.93864e-13
1.40963e-11
-1.48185e-13
-1.34707e-11
-2.02744e-11
0
-3.44896e-11
-1.28916e-11
2.6708e-12
-5.34476e-12
4.83539e-13
8.71255e-14
5.44864e-12
-6.26975e-13
7.23058e-12
-4.35316e-12
-9.62611e-12
-7.60766e-12
-1.44027e-11
1.04329e-13
3.16461e-14
-1.41829e-11
8.55117e-12
1.77454e-11
2.76015e-11
9.93094e-13
2.34065e-11
-3.6288e-13
-2.14611e-11
4.9582e-12
1.51131e-13
1.16494e-11
-2.64313e-12
2.93488e-13
1.56903e-13
-1.33694e-12
7.981e-13
1.5297e-13
5.60548e-12
1.39477e-14
-6.28771e-14
1.26189e-11
-7.34971e-12
-2.95359e-13
1.89941e-11
-3.44187e-12
-1.05293e-11
4.82976e-13
-7.67974e-12
-1.30985e-11
1.45459e-11
2.52954e-12
8.82314e-13
0
3.62107e-12
1.33362e-13
2.91793e-13
3.13808e-11
-1.99996e-11
-9.28496e-15
-4.73386e-13
-8.61458e-13
-2.35081e-11
2.94651e-13
-1.84677e-11
-5.0429e-12
-3.68614e-14
-3.09745e-11
7.44523e-12
7.45196e-13
-1.41379e-11
-1.44768e-11
2.37338e-11
-2.34444e-11
-2.36726e-11
8.76932e-12
-4.79746e-13
2.03706e-12
1.91186e-11
-9.99624e-14
1.22364e-13
-1.16066e-11
-2.78636e-11
3.58749e-12
2.11749e-11
2.2504e-12
1.84409e-13
4.28396e-12
-3.01864e-13
1.23473e-11
-1.48459e-13
2.96745e-13
9.33763e-12
0
1.45001e-11
4.43896e-13
-7.4002e-13
-1.43718e-11
0
0
-1.15599e-11
1.61461e-11
1.03614e-12
-1.47941e-13
0
-9.17102e-12
-1.18353e-12
1.13973e-11
0
0
-1.20529e-11
8.92611e-13
-1.36e-11
-3.49488e-13
8.30587e-14
-8.92144e-12
-6.34885e-15
2.78371e-11
1.61204e-11
2.35272e-12
1.20969e-11
3.74668e-12
-1.61891e-13
-4.89496e-13
-3.43486e-12
1.79996e-13
1.03763e-12
1.44594e-11
2.62813e-13
1.65412e-13
1.25883e-11
-5.65363e-13
3.33604e-11
1.22654e-13
-9.6874e-14
-6.6939e-14
-1.76757e-13
-8.35969e-13
-1.73357e-11
-4.96096e-12
1.19052e-13
-3.55245e-11
-1.38387e-13
1.39747e-13
3.63174e-12
1.31827e-14
7.60959e-14
-1.53696e-11
9.89314e-14
-4.09776e-13
1.74787e-11
6.11706e-13
-2.00395e-11
1.25826e-11
-2.92487e-13
-1.92118e-13
6.65012e-13
-2.89293e-11
8.79805e-13
2.94474e-12
4.05772e-13
1.5493e-11
1.63967e-13
1.17474e-11
-3.75713e-13
-1.3621e-11
8.73198e-14
1.22578e-12
1.41501e-13
-1.1558e-11
-1.73746e-11
-3.9449e-13
2.44482e-13
-1.22105e-11
1.0301e-13
9.62622e-14
1.40594e-11
1.32027e-11
-5.01998e-13
3.2078e-13
-1.37883e-11
-1.67263e-11
-3.70445e-13
-1.20524e-11
8.94407e-14
1.31739e-11
-9.25982e-14
-1.1453e-13
-5.09729e-14
1.14804e-11
-1.31895e-11
-1.67372e-11
0
2.95826e-13
-2.95764e-13
-4.43633e-13
-1.44945e-11
1.47991e-13
1.48111e-13
1.482e-13
1.98395e-11
1.87977e-11
-4.43868e-13
1.52353e-11
-7.39513e-12
-5.916e-13
0
2.95897e-13
-1.28767e-11
1.1548e-11
5.61263e-13
-9.93208e-14
-5.65023e-14
1.52097e-11
-7.50655e-12
-9.13914e-14
-2.54453e-14
-1.18156e-13
-1.33376e-11
1.27985e-11
-1.985e-11
-9.25331e-12
1.06878e-12
-4.17138e-14
-3.72776e-13
4.45382e-13
4.89255e-14
-5.94971e-13
-6.42324e-13
-1.17499e-11
-6.0524e-13
1.18567e-13
1.55882e-14
-4.26668e-14
8.56719e-14
-1.1581e-11
-2.12926e-14
1.44624e-13
7.71734e-14
-1.77629e-11
-5.97316e-13
-6.75062e-12
-1.40496e-11
3.86099e-14
6.61987e-13
-1.22596e-11
-7.51756e-14
-4.88163e-13
-1.33552e-13
-1.55168e-13
1.22927e-11
-1.37948e-13
-5.05791e-13
-3.64691e-13
2.76372e-13
1.15154e-11
1.44334e-11
1.22259e-11
-1.37157e-11
5.03948e-12
6.30462e-13
-2.80685e-12
1.26408e-11
-1.03502e-13
-5.51712e-14
1.25106e-11
-1.53987e-13
8.08575e-13
-7.41517e-15
3.20039e-13
-1.24445e-11
2.53126e-13
5.36651e-13
4.15574e-14
-1.34773e-11
5.23838e-14
-1.38238e-11
-1.25166e-11
1.35126e-11
-1.76623e-13
1.7047e-12
1.02587e-11
-1.16459e-11
3.57253e-15
8.87938e-13
1.67639e-11
1.27561e-11
-2.13759e-13
-2.82533e-14
-2.26493e-13
1.33241e-12
1.0064e-11
-1.21306e-11
5.9153e-13
1.40468e-11
1.65601e-11
1.21257e-11
1.47923e-13
-1.47988e-13
0
4.4393e-13
0
-7.1004e-12
2.95805e-13
0
1.28666e-11
-7.39494e-13
-1.71585e-11
1.47947e-13
0
1.44992e-11
5.55231e-13
-7.28928e-12
-6.69148e-13
-3.32655e-13
1.30844e-11
-3.35816e-13
-3.27864e-11
-4.45224e-14
1.76646e-13
1.33334e-13
1.95941e-13
1.71094e-11
2.35238e-13
9.38079e-13
-4.73679e-14
-5.70354e-15
-6.50021e-13
5.61772e-14
2.54634e-14
-1.41704e-11
-1.01444e-12
-1.66371e-13
5.82591e-13
6.27071e-13
1.44985e-11
-1.42534e-13
1.53437e-11
-1.7761e-11
-1.62152e-11
-1.20668e-11
2.44375e-13
-2.95497e-11
-3.18823e-13
-9.35203e-13
3.43097e-13
4.30849e-13
-4.55448e-14
-2.40335e-13
-1.26658e-13
1.43242e-11
3.67536e-13
-1.64335e-11
7.04214e-16
-3.42932e-13
-1.42932e-11
-9.93853e-14
1.73508e-13
1.03299e-12
1.60258e-11
1.18819e-11
-1.17005e-13
-5.01288e-12
-1.51627e-11
-4.01531e-13
-6.60974e-13
-1.00493e-13
2.13981e-13
-4.14468e-13
1.09383e-13
-6.99731e-13
-1.84113e-13
1.60252e-11
3.62713e-13
-5.24107e-14
-1.85091e-13
5.03814e-14
-1.58166e-11
1.67328e-11
0
-1.81489e-13
1.14084e-13
1.74831e-11
1.51381e-11
1.86409e-13
1.34444e-14
6.66095e-14
-6.98086e-14
5.91572e-13
-1.88002e-13
-1.33172e-11
-1.4794e-13
1.47902e-13
1.47874e-13
1.4786e-13
-4.43571e-13
2.95733e-13
1.58243e-11
0
-2.95913e-13
-5.91721e-13
1.34604e-11
0
-2.07047e-12
0
0
1.47884e-13
-1.47893e-13
-1.47911e-13
0
-5.91666e-13
2.58834e-11
1.47891e-13
0
1.67109e-11
5.91526e-13
1.52314e-11
-1.3309e-12
1.47892e-13
1.56778e-11
0
5.9156e-13
-1.31616e-11
2.07045e-12
1.47898e-13
7.39469e-13
1.47879e-13
-1.4787e-11
1.183e-11
1.47886e-13
0
-1.257e-11
1.47889e-13
0
-1.73075e-11
-4.43762e-13
-1.5233e-11
8.87206e-13
1.47861e-13
-1.58218e-11
0
-2.95763e-13
1.30149e-11
-3.84607e-12
-1.47952e-13
-4.43834e-13
1.77489e-12
2.82433e-11
-1.18284e-11
0
2.95759e-13
-7.39385e-13
-1.75991e-11
-1.4792e-12
-1.42026e-11
1.47937e-13
1.58253e-11
0
-1.47849e-13
1.47854e-13
1.47881e-13
-1.33085e-11
-1.37524e-11
1.03524e-12
-1.47905e-13
-1.47898e-13
-1.33084e-12
-1.40456e-11
0
0
0
-1.62666e-12
1.78918e-11
1.47864e-12
1.56738e-11
-1.47861e-13
-4.43539e-13
0
1.84815e-11