/*--------------------------------*- C++ -*----------------------------------*\
  =========                 |
  \\      /  F ield         | OpenFOAM: The Open Source CFD Toolbox
   \\    /   O peration     | Website:  https://openfoam.org
    \\  /    A nd           | Version:  10
     \\/     M anipulation  |
\*---------------------------------------------------------------------------*/
FoamFile
{
    format      ascii;
    class       volScalarField;
    location    "0.1";
    object      gradTz;
}
// * * * * * * * * * * * * * * * * * * * * * * * * * * * * * * * * * * * * * //

dimensions      [0 -1 0 1 0 0 0];

internalField   nonuniform List<scalar> 
47104
(
5.96396e-13
7.45367e-13
4.46795e-13
-2.23068e-12
1.48558e-13
0
-1.4871e-13
-1.48928e-13
-4.47202e-13
-1.49091e-13
-2.9813e-13
-1.48935e-13
-4.45749e-12
-2.36833e-12
1.03349e-12
-1.47641e-13
4.44057e-13
1.78297e-12
-2.82967e-12
2.53399e-12
-2.23376e-12
2.9715e-13
5.90864e-13
-2.63399e-12
-1.45444e-13
0
8.77993e-13
1.47714e-13
-2.97142e-13
-1.04238e-12
-2.67656e-12
-8.88062e-13
0
-1.00774e-12
-1.70993e-12
1.99492e-12
-2.87925e-13
8.77959e-13
-2.66411e-12
-3.12253e-12
2.97099e-13
0
1.4544e-12
5.69972e-13
1.40674e-13
-5.62695e-13
-1.42492e-13
0
2.95259e-13
-3.11938e-12
-2.22833e-12
0
-2.03618e-12
1.42493e-13
-4.22019e-13
1.40673e-13
-8.54948e-13
-1.45438e-13
-5.46237e-12
-2.22818e-12
-1.93327e-12
1.18416e-12
-1.31698e-12
-2.73525e-12
2.42233e-12
5.6996e-13
0
1.17062e-12
-4.73637e-12
2.6766e-12
0
-5.94332e-13
1.1817e-12
8.77938e-13
5.67189e-12
-2.90868e-13
1.46325e-13
-4.43135e-13
1.48576e-13
-7.44609e-13
0
2.53182e-12
2.07994e-12
-7.4e-13
-2.95246e-13
-5.90501e-13
-7.40029e-13
-4.3086e-12
-2.9786e-13
-4.91918e-12
0
-2.98113e-13
-7.44526e-13
-4.4605e-13
1.48533e-13
-1.03975e-12
-2.52776e-12
5.95659e-13
2.23593e-12
-1.49094e-13
5.58629e-13
8.76985e-13
3.43461e-12
2.08918e-12
-1.1265e-13
4.84061e-13
0
0
-5.97376e-13
-3.17536e-13
-1.91505e-14
-1.15965e-12
2.45504e-12
8.74532e-13
-4.12213e-13
-7.24803e-13
-4.28413e-12
-1.6508e-12
1.90774e-12
2.37009e-12
-2.09029e-12
3.85193e-13
-2.38378e-12
-2.96563e-12
0
2.95676e-13
-5.3267e-12
5.94152e-13
-1.16988e-12
-7.46501e-13
-2.38731e-12
-3.60704e-14
-7.71025e-12
-2.63504e-12
2.03438e-12
-1.45184e-12
5.82403e-13
5.89238e-12
2.55336e-12
-5.96804e-13
0
8.30372e-13
-1.18314e-12
0
-5.7496e-12
-2.87092e-13
-4.03695e-12
-2.93228e-13
-1.26999e-13
1.49159e-13
-5.96704e-13
2.27941e-13
5.91341e-13
5.80729e-13
-7.17727e-12
-8.60039e-13
-3.16801e-12
5.56795e-12
-1.62663e-12
0
2.98465e-13
-4.96861e-12
2.95927e-12
8.73597e-13
-1.7301e-12
8.63998e-13
5.49347e-12
0
-2.55481e-12
-1.49214e-13
1.49339e-13
-1.49462e-12
-1.1883e-12
-5.89227e-13
-3.81188e-12
2.93044e-13
2.93557e-13
2.95743e-13
-6.40063e-14
-7.46597e-13
2.98711e-13
-8.2296e-13
-7.5836e-14
-2.9802e-12
-5.65589e-13
2.01571e-12
-2.77168e-13
-1.45282e-12
-1.23444e-12
-2.53885e-12
-1.9143e-14
-2.85633e-12
2.83652e-12
1.4919e-13
-2.6184e-13
3.44868e-12
-9.13406e-13
7.46544e-13
2.42768e-12
3.82396e-14
2.57508e-12
1.34964e-13
2.54528e-12
2.72965e-12
1.00826e-14
-3.71363e-12
-5.47561e-13
2.19197e-12
4.29409e-13
1.94487e-14
-2.18881e-13
2.98386e-12
3.28675e-12
1.19625e-12
-4.49623e-12
1.49957e-12
-6.58616e-12
-3.584e-12
4.17777e-12
-2.57964e-12
1.26534e-12
6.27393e-12
1.51357e-12
-3.02724e-13
3.04416e-13
-1.82958e-12
3.03528e-12
-2.42043e-12
-5.4062e-12
9.94462e-14
1.17408e-13
2.99028e-13
7.56792e-12
1.39718e-07
1.36042e-07
1.38349e-07
1.27403e-07
-2.3471e-10
1.50607e-12
6.7649e-14
-4.10689e-13
0
-2.43527e-12
1.36022e-07
-1.94698e-08
-2.0324e-08
-1.17425e-08
-1.24416e-09
6.05126e-13
2.84993e-12
2.06963e-13
-5.99818e-13
9.14783e-13
1.38344e-07
-2.03217e-08
-2.12619e-08
-1.21754e-08
-1.29857e-09
4.24061e-12
1.85186e-12
2.37262e-12
-2.6944e-12
4.55291e-12
1.27408e-07
-1.17503e-08
-1.21745e-08
-6.22675e-09
-9.43616e-10
3.01944e-12
-2.62817e-12
2.10064e-12
6.86965e-12
-3.32804e-12
-2.24049e-10
-1.23407e-09
-1.2941e-09
-9.43008e-10
-4.66972e-11
-3.00638e-13
-3.13855e-13
1.25456e-13
-3.2827e-12
6.0066e-13
1.80718e-12
9.07651e-13
1.21155e-12
2.41543e-12
-9.01873e-13
5.08502e-12
2.5629e-12
1.68665e-13
-7.42439e-13
2.7089e-12
4.95612e-13
2.05373e-12
3.5423e-12
2.34352e-12
-9.69232e-14
2.56717e-12
4.0866e-13
2.97698e-13
-3.43013e-13
-3.19472e-12
-2.96284e-12
-5.09324e-14
-3.57675e-13
1.61328e-13
-2.34826e-12
3.32058e-13
0
-2.78072e-12
-5.34743e-12
1.53807e-13
-6.48242e-12
-2.66341e-12
-6.81274e-12
-1.18129e-11
-8.83141e-13
-5.93593e-12
-2.49025e-12
-6.78192e-13
-1.75987e-12
2.16413e-11
-6.17547e-08
-2.76721e-08
-2.53536e-08
-2.98419e-08
-4.76704e-08
4.29882e-11
-3.64077e-12
9.5692e-14
-5.00883e-12
-6.17094e-08
-225.413
-294.21
-294.848
-293.312
0.0211434
-5.70148e-11
-1.04284e-13
8.8126e-14
-3.25516e-12
-2.76479e-08
-294.209
-407.992
-409.504
-405.672
-0.0548632
-1.46573e-09
8.82359e-13
1.13316e-13
-7.40516e-12
-2.53628e-08
-294.847
-409.504
-411.101
-407.105
-0.0551389
-1.35029e-09
4.14585e-12
-7.65195e-14
-2.06739e-12
-2.99443e-08
-293.312
-405.672
-407.106
-403.447
-0.0550892
-1.74928e-09
5.44397e-14
1.01827e-13
-6.47652e-12
-4.73049e-08
0.0211337
-0.0548671
-0.0551406
-0.0550909
0.0241146
-8.23385e-10
3.62365e-13
-4.91412e-14
2.96842e-13
3.06587e-11
-5.90806e-11
-1.47257e-09
-1.35712e-09
-1.80953e-09
-8.05505e-10
-4.46317e-12
-1.16197e-13
-2.97683e-13
2.89602e-12
-2.76312e-12
1.19172e-13
-2.15942e-12
-5.31019e-13
4.45463e-12
-1.02108e-13
3.12978e-12
0
-2.37864e-12
2.0373e-12
-1.9091e-12
-1.083e-13
1.87495e-13
3.63086e-12
1.1896e-13
-1.93376e-12
-7.42217e-13
-1.93698e-14
-2.39172e-12
-1.48218e-12
-1.75297e-13
-1.36203e-11
4.4357e-11
4.09066e-11
5.26956e-11
-3.07329e-13
5.92432e-12
3.24837e-12
5.12449e-13
-6.70776e-12
1.8095e-10
0.0014457
0.00282657
0.00284519
0.00278661
-4.20418e-05
1.22395e-10
2.57555e-12
-3.20764e-13
-1.07221e-11
0.0014433
-2.56637e-08
6.32718e-13
-2.31683e-13
4.08768e-11
0.00282612
1.73368e-07
-2.22914e-13
2.50654e-12
4.14872e-11
0.00284453
1.76284e-07
1.38128e-12
-6.01296e-14
3.6201e-11
0.00275635
1.64642e-07
2.74026e-12
3.74384e-13
2.75918e-12
-4.14109e-05
-1.08353e-08
-2.33085e-12
2.67156e-12
2.96305e-13
1.21236e-10
-2.61293e-08
1.73328e-07
1.75939e-07
1.57997e-07
-8.95409e-09
2.97986e-13
7.70472e-13
1.29189e-13
4.18246e-13
-2.92656e-12
2.77473e-12
-2.47906e-12
-1.7673e-13
3.3583e-13
9.77303e-14
-4.53824e-13
0
1.22841e-12
-3.53086e-13
3.54658e-13
2.86603e-13
-1.26287e-13
1.01872e-13
-7.05023e-14
2.48918e-12
-2.78188e-13
-1.29363e-13
2.98057e-12
0
-4.86204e-14
2.04157e-12
1.05018e-11
5.2547e-12
1.04886e-11
6.03549e-12
-2.97749e-13
4.43581e-12
-7.63439e-13
5.20254e-13
-1.2277e-10
5.52605e-05
8.80862e-05
8.58391e-05
8.69019e-05
-1.17776e-06
8.8959e-12
3.87699e-12
-1.32433e-13
-2.62485e-12
5.0904e-05
5.08368e-10
-1.24418e-13
2.34609e-13
1.10847e-11
8.74566e-05
2.19915e-08
-3.27309e-12
-3.65168e-12
9.63348e-12
8.60501e-05
2.29651e-08
-4.38035e-12
4.9424e-13
2.06918e-11
0.000139219
1.92447e-08
-1.16882e-13
-4.86322e-13
-5.56919e-13
5.44473e-06
-7.78328e-10
3.44003e-12
3.63329e-14
2.97643e-13
1.39183e-11
3.1231e-10
2.20272e-08
2.33e-08
3.82753e-08
-1.77319e-09
1.502e-12
2.59884e-13
-9.03989e-14
-3.27693e-12
-6.38251e-13
-2.63964e-12
4.96428e-12
2.63812e-12
-3.82126e-12
-1.905e-12
-2.70962e-12
-1.09867e-13
-6.33856e-13
-7.00926e-12
-3.41668e-13
-1.17444e-13
-3.85757e-13
2.75153e-12
-2.62467e-12
-2.70923e-13
6.81069e-13
7.43833e-13
2.31567e-12
-2.08453e-12
-3.29119e-13
-1.75459e-12
-1.4629e-12
6.44171e-12
3.21383e-12
-1.03646e-11
5.07152e-12
1.7033e-13
3.0473e-13
-2.04361e-13
-1.48697e-10
2.35455e-05
2.99574e-05
2.50245e-05
3.21418e-05
-2.61964e-07
3.27313e-12
-2.84288e-12
-3.93962e-13
-5.55662e-12
-7.47987e-06
-5.47705e-11
4.54242e-12
-5.18694e-13
1.75537e-12
2.34403e-05
3.24522e-09
1.00107e-13
3.06039e-13
2.04953e-12
2.52884e-05
3.4457e-09
-1.30156e-12
-2.84345e-12
-2.04515e-12
4.53794e-05
2.78949e-09
-2.48439e-12
-1.91205e-12
-5.61519e-12
-1.18872e-06
-1.20141e-10
1.74262e-12
-2.51205e-12
-8.94909e-13
3.09919e-13
-5.91776e-11
3.26033e-09
3.63318e-09
5.92566e-09
-4.58297e-10
-2.10792e-12
-3.8501e-13
4.07502e-13
1.37319e-13
-2.79036e-12
-2.90967e-12
3.04798e-12
4.08416e-13
4.81964e-13
-3.43916e-14
-2.10448e-12
-3.87757e-14
-5.95434e-13
3.2341e-12
-5.18143e-13
3.40546e-14
-1.8305e-12
-6.44924e-13
2.98088e-13
-7.7287e-13
2.2612e-13
0
9.74719e-14
3.87395e-12
-4.30619e-13
-1.17052e-12
4.97724e-12
-2.93003e-13
5.55467e-12
5.84595e-12
-9.55643e-12
-2.55183e-12
3.66727e-12
-4.10434e-12
-1.52404e-10
1.80403e-05
2.35451e-05
1.81376e-05
2.59149e-05
1.2819e-07
5.40219e-12
4.80587e-13
-5.91732e-14
8.78618e-13
0.000153572
-2.12008e-10
4.07961e-13
8.66581e-14
8.7835e-13
-3.63572e-06
-3.9874e-10
2.29008e-12
5.75622e-12
8.78953e-13
1.80229e-05
-4.25832e-10
3.20555e-12
-3.33503e-13
5.84684e-13
2.65863e-05
-3.60951e-10
-6.81811e-13
-2.29744e-13
9.20758e-12
8.70144e-08
2.7939e-11
-3.01654e-12
1.44303e-13
-3.58356e-12
3.65621e-12
-1.80451e-10
-4.30324e-10
-9.44144e-10
-1.63064e-08
1.90585e-09
-6.0263e-13
-3.73173e-13
-1.48836e-13
2.83105e-12
5.14983e-13
3.5331e-12
-5.20189e-12
-2.71467e-12
-2.59504e-13
1.73682e-12
-5.50399e-13
-5.9548e-13
1.48904e-13
4.67879e-12
1.77145e-13
-2.78657e-12
-5.69118e-14
-2.94658e-12
2.23655e-12
-3.58311e-14
3.17736e-12
-5.9559e-13
-3.44096e-12
-7.74999e-12
3.21409e-13
2.92647e-12
-3.80612e-12
-1.05478e-11
-1.43253e-11
1.85962e-12
4.77889e-12
-4.86336e-13
-3.18443e-12
5.58535e-12
-2.33121e-11
1.08778e-05
-7.53968e-06
-1.47669e-05
-3.20333e-06
5.69896e-07
-4.95302e-12
2.25085e-12
-1.9583e-12
7.90926e-12
-9.67183e-05
-7.20088e-10
7.93603e-13
3.75702e-13
-4.09858e-12
1.61111e-05
-2.19496e-08
1.04569e-13
-2.6539e-12
2.34378e-12
-1.41921e-05
-2.28218e-08
-9.06096e-13
3.40397e-12
-4.67754e-12
-3.06831e-06
-1.87409e-08
3.62889e-13
2.03924e-12
8.47326e-13
4.84701e-07
4.78213e-10
2.26813e-12
-2.14344e-13
1.1051e-11
-7.61764e-12
-7.0192e-10
-2.19407e-08
-2.24486e-08
2.44755e-09
-1.20388e-09
3.01295e-13
7.16343e-15
-2.97783e-13
3.42757e-15
4.91524e-12
3.21333e-12
-3.17662e-12
3.73094e-14
-4.32492e-12
-3.33958e-12
-9.75179e-14
-1.48925e-13
-4.46784e-13
-2.80294e-12
2.99151e-13
2.42124e-12
1.52692e-12
2.84067e-12
1.35792e-13
-4.99237e-13
2.84618e-13
-2.97877e-13
2.81929e-13
7.45202e-12
-1.28976e-12
2.22735e-11
2.20127e-11
3.14292e-11
1.81678e-11
-2.16383e-12
2.98661e-13
-2.24095e-12
1.34288e-13
3.35042e-13
-2.08687e-10
-0.000935187
-0.00215774
-0.00218187
-0.00211776
2.21475e-05
-3.18547e-11
-9.02111e-14
-4.76786e-14
3.22408e-12
-0.000878411
7.56279e-08
-3.27969e-13
5.45823e-14
2.05422e-11
-0.00215017
1.66024e-07
3.22497e-12
-2.07981e-12
2.20281e-11
-0.00218318
1.66493e-07
-2.30089e-12
-2.44843e-12
1.08417e-11
-0.0021183
1.4201e-07
-2.33008e-12
1.36692e-13
-5.29158e-12
2.21478e-05
5.59662e-09
-3.45181e-13
-4.93471e-13
-6.27164e-12
-2.32529e-11
7.58346e-08
1.66037e-07
1.66552e-07
1.41513e-07
5.25122e-09
-3.01167e-13
1.87283e-13
-2.9786e-13
4.9237e-13
-1.58429e-12
2.0322e-12
4.27761e-13
1.38333e-14
3.86502e-13
3.45333e-13
-3.21996e-14
8.9377e-13
3.72322e-12
2.24413e-12
6.33937e-13
2.86532e-12
1.30919e-12
5.6719e-14
-5.62523e-14
-5.5418e-13
-2.94603e-12
1.48955e-13
5.76727e-12
-5.96154e-13
5.76372e-13
-6.16552e-12
1.47103e-12
3.00773e-14
-2.93707e-13
4.1963e-13
2.38837e-12
8.4841e-13
3.10997e-12
-6.45133e-12
6.11941e-12
2.16009e-07
9.26712e-08
8.56477e-08
1.00497e-07
1.81094e-07
6.68354e-12
-4.75e-12
2.63699e-12
0
2.14469e-07
-1.55442e-10
-3.1339e-12
-2.43393e-13
-5.88438e-13
9.44346e-08
-1.96525e-10
-2.33344e-13
2.83782e-12
-3.24013e-12
9.14526e-08
-1.83081e-10
4.45017e-13
-3.86646e-13
1.46859e-12
1.02475e-07
-2.34397e-10
-2.58525e-12
-5.17302e-12
2.99363e-13
1.84483e-07
2.85528e-10
-5.93553e-12
1.53758e-13
-6.56769e-12
1.6903e-12
-1.57307e-10
-1.91872e-10
-1.78659e-10
-2.3231e-10
2.91786e-10
6.02208e-13
-3.01349e-13
-7.44725e-13
-2.84557e-12
-5.96282e-12
-5.29182e-12
-1.39396e-14
-1.1918e-13
3.68187e-12
-1.33734e-13
-2.48547e-12
-1.48971e-13
1.48915e-13
-2.58693e-12
2.61509e-12
-2.4278e-12
-1.8799e-12
-1.88359e-12
-2.60194e-12
1.68007e-12
-7.5404e-13
-1.4895e-13
1.15741e-13
0
1.12344e-11
-2.92924e-13
-5.85873e-13
-3.81152e-12
-8.77681e-13
4.29492e-13
-7.16724e-12
-4.30348e-13
8.41272e-14
6.0537e-12
-1.22628e-12
1.16734e-11
1.17604e-12
-2.35599e-12
5.87198e-13
-2.98574e-12
-3.97292e-13
-4.52465e-12
1.14143e-13
-4.97862e-12
-1.13463e-11
1.76018e-12
-2.70376e-13
4.04356e-12
0
1.58714e-11
-5.24836e-12
-2.98451e-12
-2.26139e-13
0
2.94608e-12
1.38034e-11
-8.17383e-13
6.00846e-12
4.97378e-12
2.23031e-11
4.12101e-12
-2.81439e-13
-1.54925e-12
3.39112e-12
1.52416e-11
-1.47884e-12
3.32321e-13
-1.47651e-12
6.27378e-12
-1.88409e-12
1.9984e-12
5.15236e-12
-4.74171e-12
7.38248e-14
1.8635e-12
0
-2.92953e-12
1.48938e-13
1.87811e-14
1.33505e-12
-1.93548e-12
2.54787e-12
6.6578e-14
-5.34719e-13
3.00811e-12
-7.26302e-13
-1.10136e-13
-3.72256e-12
-2.93545e-12
-6.05469e-13
2.5522e-13
-1.69689e-12
-3.4858e-13
2.25537e-12
-2.02046e-12
1.8212e-13
-1.93487e-14
-3.13486e-12
2.98121e-13
-9.25937e-12
2.92849e-12
-5.85626e-13
0
5.84878e-13
-2.33638e-13
1.07525e-11
-1.04579e-12
4.64956e-13
-5.18843e-13
-1.83876e-12
4.68473e-12
1.05075e-11
5.90812e-13
1.53083e-11
1.87096e-12
-8.44478e-12
2.33792e-12
-2.07072e-12
6.43952e-12
2.59834e-13
1.42068e-13
-3.39618e-12
7.8722e-13
-2.92816e-13
2.60088e-11
-3.88938e-13
-2.63242e-12
-7.04418e-14
-2.93059e-13
9.45198e-12
-7.19827e-12
-1.17628e-12
4.39665e-13
-3.80156e-12
-2.35489e-12
1.06195e-12
2.2421e-12
-2.31933e-13
-3.21725e-12
-1.02564e-13
7.84285e-12
3.78188e-12
-6.22499e-14
5.97339e-12
9.10737e-13
3.20411e-13
-5.50767e-12
5.74934e-12
-6.64181e-14
-2.24376e-12
1.68484e-13
-3.47507e-12
8.93536e-13
2.99667e-12
7.65797e-12
5.91346e-12
-3.54968e-12
-3.47313e-14
-3.02225e-13
3.48754e-12
2.47993e-12
-1.23032e-12
-7.44475e-13
3.07822e-12
-2.5704e-12
2.08115e-14
3.15432e-12
2.87039e-13
2.23659e-12
-3.73156e-13
-2.10663e-12
-2.08503e-12
2.67449e-13
0
-1.1401e-12
2.92776e-12
5.56439e-12
4.68991e-12
2.92478e-13
-2.08663e-13
-4.48039e-12
2.56499e-12
1.43895e-13
-6.83455e-12
0
5.42238e-12
-1.45404e-12
-7.09177e-12
-5.88924e-13
-1.11046e-11
8.40358e-12
2.01042e-12
2.94171e-12
5.85467e-13
5.57485e-13
1.04491e-13
-1.42532e-13
-1.62677e-12
0
6.45656e-13
-2.17268e-12
-1.0696e-13
-4.86324e-14
-1.17243e-12
0
5.73007e-12
3.60571e-13
-3.56446e-12
-6.14169e-12
9.42214e-12
2.7084e-12
3.5534e-12
1.29393e-12
-1.09598e-12
1.0756e-11
-8.78626e-13
-7.26288e-13
2.23909e-12
-4.47979e-12
-1.03994e-12
-1.28723e-12
-5.84088e-12
-8.49934e-12
-4.21735e-12
4.59356e-14
-1.20558e-12
2.81695e-12
1.4891e-13
-2.88815e-13
-4.77671e-13
-1.33394e-12
-3.66728e-13
-8.61512e-14
6.69201e-13
-3.16831e-12
6.57213e-13
-3.12756e-12
-2.97787e-13
6.80664e-13
-2.30338e-14
-2.04199e-13
9.8125e-14
-1.94966e-13
-1.88564e-12
2.84137e-12
-1.44772e-13
1.93542e-14
-3.53548e-13
-5.96202e-13
-3.38473e-13
-6.44377e-12
-8.19897e-12
-5.86164e-13
3.50939e-12
-4.16491e-12
5.97323e-13
7.26717e-13
-5.37597e-13
7.47665e-12
1.22797e-12
-1.00828e-13
-5.89841e-13
5.90948e-13
7.06675e-12
-1.24265e-11
2.7444e-13
-4.42946e-13
-6.75487e-13
-5.26915e-12
9.75626e-12
4.84992e-12
7.30452e-13
-6.65763e-13
1.46411e-12
-1.14573e-11
7.68532e-12
2.91336e-12
1.95943e-14
-4.98206e-12
1.18188e-12
-5.3652e-12
-8.34201e-13
-1.41064e-13
4.38625e-12
0
-9.03285e-12
1.18645e-13
8.10276e-14
4.97623e-13
-4.62657e-12
-1.49961e-12
1.73868e-13
-5.39176e-14
-2.68862e-12
-3.99808e-13
1.0449e-12
-7.11439e-13
9.14056e-12
8.22007e-12
6.24795e-14
-4.21957e-12
3.27731e-12
-4.4673e-13
-3.65567e-14
-3.44519e-12
-3.03012e-12
1.22356e-12
-2.61246e-12
1.26188e-12
-5.20942e-13
7.30932e-14
-2.23402e-12
7.4452e-13
-7.30244e-14
-1.67561e-13
-1.4242e-13
-1.36345e-13
-2.15537e-13
-2.36247e-13
-3.58683e-13
5.13897e-12
2.08524e-12
-2.77926e-12
1.19218e-12
-3.00977e-13
2.92846e-12
2.92808e-13
0
-3.80167e-12
4.82641e-12
2.98561e-13
4.67616e-13
-2.43784e-12
-1.01965e-12
1.22995e-12
1.12634e-11
1.47323e-11
-5.90359e-13
5.88382e-13
-1.22427e-12
2.5588e-12
2.43532e-12
-2.84612e-12
1.1712e-11
1.37807e-12
-4.4272e-12
-6.70472e-14
-2.98683e-12
1.17118e-12
5.89295e-13
3.36903e-13
-5.66793e-13
-5.1566e-13
1.11356e-11
1.12166e-11
-8.0447e-14
7.31414e-13
-2.31763e-13
-7.01767e-12
5.29442e-12
4.99763e-12
-1.20744e-13
4.55985e-14
6.14376e-12
-1.48519e-11
3.69232e-12
1.09522e-13
6.5e-13
1.19453e-12
5.92804e-12
8.51614e-13
8.1523e-12
-2.10163e-12
2.09643e-12
-4.87272e-12
1.29534e-11
1.93936e-13
2.7844e-13
3.09835e-12
1.503e-13
-2.28065e-12
6.7028e-14
1.88924e-13
-3.20445e-13
2.13351e-12
-1.75125e-14
3.27693e-12
4.46798e-13
-2.10142e-13
-4.54987e-13
2.01375e-13
-1.2205e-13
1.51972e-13
1.21013e-13
-2.30668e-12
3.15276e-14
-1.95602e-12
2.45211e-12
4.47023e-12
-1.50394e-12
-1.46644e-12
5.87719e-13
0
-2.93392e-13
-1.47122e-12
8.95401e-13
-3.33873e-13
3.25835e-14
1.21437e-13
-6.10411e-13
8.70299e-12
-1.35892e-11
-5.91663e-13
-8.85227e-12
-1.36707e-11
-4.02879e-12
5.8806e-13
6.55271e-12
-7.03819e-12
-1.33457e-11
5.95876e-12
3.15729e-12
-5.02546e-13
-1.46921e-12
5.90833e-13
-5.51242e-12
-2.99233e-14
-6.88371e-13
-4.11746e-12
1.18331e-12
5.03766e-12
5.6903e-12
-5.72305e-13
6.74765e-12
-1.7703e-12
1.02317e-12
-6.37563e-13
1.96839e-12
-6.18208e-12
8.79752e-12
4.91204e-12
-3.02316e-13
1.3147e-13
-5.96863e-13
-3.51407e-12
7.04649e-12
7.83509e-12
-3.50687e-13
-5.83851e-12
4.76011e-12
-6.31888e-12
2.85009e-13
-5.76403e-13
-2.60855e-12
-2.53121e-12
-4.53113e-13
1.84007e-12
2.5743e-12
-6.79614e-13
6.04629e-13
6.11757e-13
3.27763e-12
1.48953e-13
6.05093e-13
7.95079e-13
1.0069e-13
1.65646e-13
3.98151e-13
-2.1625e-12
2.51552e-12
-3.08796e-12
3.17312e-13
7.38474e-12
-5.0689e-12
7.97381e-13
-5.8696e-13
2.93901e-13
-5.58902e-12
2.93462e-13
3.95371e-13
-1.19487e-12
-3.98298e-13
2.32166e-12
-3.81856e-13
-6.13792e-13
-8.66143e-13
9.54449e-12
-7.97032e-13
-9.84367e-12
-9.58233e-12
1.96071e-12
9.10879e-13
4.43848e-14
5.86881e-13
2.00612e-12
-1.34269e-11
1.84521e-13
8.65513e-14
-1.17554e-12
6.41186e-12
9.45289e-12
3.30745e-13
-2.10105e-12
-3.23563e-12
1.32838e-13
-5.26742e-12
2.17034e-12
-1.97899e-13
5.86907e-13
-2.64571e-12
1.03251e-14
-2.66667e-13
-2.49436e-12
4.52958e-12
-2.5153e-11
2.43546e-13
-3.67906e-12
-7.38312e-13
-4.18215e-12
-1.28209e-12
-1.26807e-11
-1.55591e-12
6.69909e-12
7.45709e-13
2.79986e-13
6.63112e-12
-3.37555e-12
1.48979e-13
-3.28579e-12
-1.0685e-13
-1.19186e-12
-5.37143e-13
1.43767e-14
1.08273e-13
-2.17262e-12
-1.91981e-13
3.36853e-13
-5.95802e-13
2.62402e-13
2.5229e-12
-2.26682e-12
-3.3664e-13
-2.097e-12
-1.1851e-13
2.60426e-12
6.61282e-14
1.76833e-12
-2.53961e-12
-2.98181e-13
-6.24774e-13
-6.73681e-12
0
4.98245e-12
-2.92471e-13
-7.33842e-12
6.57079e-12
1.11166e-12
2.02423e-13
1.09162e-13
6.13609e-13
3.89859e-12
0
-3.53873e-12
-1.29321e-11
1.06648e-12
6.80436e-12
2.16348e-12
-3.88203e-12
5.27161e-12
-9.20099e-13
4.66699e-13
-2.26847e-13
9.21751e-13
0
-1.17751e-12
-4.54824e-12
1.78076e-13
4.08409e-13
3.22381e-12
1.17957e-12
1.08997e-12
-3.8396e-12
-1.70837e-12
-5.84914e-13
-9.40504e-12
6.28765e-13
-3.03081e-12
6.78389e-13
-3.7316e-12
-9.8693e-14
-5.46537e-12
-2.03537e-12
1.09911e-13
-1.1947e-12
4.86714e-13
5.32721e-12
-6.61764e-12
-1.34354e-11
-4.29282e-12
-1.42565e-12
-1.38637e-11
-2.52194e-13
2.97938e-13
2.28022e-12
2.53324e-12
3.9783e-13
3.72954e-12
-6.47162e-13
2.19722e-12
3.53157e-12
-2.59612e-13
-3.88352e-14
-2.53239e-12
1.74971e-13
-9.08572e-13
-4.07691e-13
-5.26176e-14
2.16485e-12
2.39998e-12
-2.56257e-12
-1.84908e-13
-1.29651e-13
-7.13824e-12
1.49084e-12
-3.50346e-13
6.44353e-12
0
-4.98245e-12
-5.26415e-12
1.40431e-11
-8.96032e-13
3.6228e-12
-3.44296e-13
1.51959e-12
-1.22708e-12
-1.5112e-13
-4.2586e-13
-3.5453e-12
1.17752e-12
-1.32038e-11
-5.59661e-12
-6.17474e-13
2.8621e-12
-1.20071e-11
7.2952e-13
6.93529e-12
3.28728e-13
7.01939e-13
7.32055e-12
-3.58676e-12
9.74836e-13
6.52194e-14
2.62271e-12
-8.79206e-13
-7.68142e-12
-5.19126e-13
-6.35299e-15
7.93478e-14
6.72579e-12
1.17746e-12
9.41628e-14
1.7724e-13
2.85385e-12
-1.35302e-13
-1.36227e-11
1.1704e-11
7.14224e-12
-5.07014e-14
5.07805e-12
-3.77052e-12
9.59221e-13
7.11254e-12
6.38258e-12
-2.56358e-12
1.73831e-12
7.83734e-12
8.03176e-12
0
-1.13403e-13
-2.38321e-12
4.23005e-12
2.67798e-12
4.98938e-14
-8.74596e-14
1.25218e-13
-2.61377e-12
0
1.49022e-13
2.44142e-12
-2.37352e-12
1.62485e-12
2.35297e-13
1.47058e-12
1.2865e-13
-1.00783e-15
1.73747e-13
-3.12953e-12
9.94247e-14
-2.9821e-13
-3.18466e-13
2.92764e-13
-2.92877e-13
5.56915e-12
5.55689e-12
-7.03621e-12
-4.48028e-12
-9.86376e-13
2.41734e-12
-1.15472e-12
0
1.65992e-12
2.37036e-11
5.90946e-13
-1.17769e-12
-2.72785e-12
1.64769e-12
-2.4603e-12
1.87832e-13
7.02555e-12
-1.72087e-12
-5.0553e-13
-8.47417e-14
3.39232e-12
-4.68559e-12
-7.97366e-13
-1.44096e-12
3.51599e-12
-1.24315e-13
2.93096e-13
1.77281e-12
5.66516e-12
-1.0926e-12
-7.76734e-13
-6.43379e-12
1.41306e-11
1.28364e-12
4.79169e-13
-8.12261e-14
6.17893e-12
1.11116e-11
-6.26624e-12
4.20405e-12
9.7961e-13
0
8.10723e-12
-7.4547e-13
-6.84134e-12
-2.30158e-12
6.1025e-12
-1.53241e-12
6.02849e-13
5.2406e-12
1.49017e-13
4.44725e-13
-1.89626e-12
-8.06961e-13
-3.26801e-12
8.26886e-13
-2.05426e-12
-2.67091e-12
8.93306e-14
6.35138e-13
2.23703e-12
-6.4731e-13
-1.34212e-13
2.84032e-13
-1.50732e-13
-2.20105e-12
1.87796e-13
3.57485e-14
-1.46395e-13
-3.00199e-12
2.76955e-12
-5.36969e-12
5.69737e-12
-2.92751e-13
-4.39279e-12
-1.17229e-12
5.84882e-13
-5.99369e-13
-2.98835e-13
-6.32988e-12
8.79424e-15
2.21695e-13
-6.13689e-13
7.90661e-12
1.50026e-13
0
1.76573e-12
-1.29496e-12
-1.41902e-12
-3.56007e-14
-4.85724e-12
0
-2.09036e-11
-3.35029e-13
-6.49107e-13
-1.69155e-12
2.34253e-12
1.29717e-11
-4.35566e-12
-2.62923e-13
1.15325e-13
0
1.35859e-11
-6.17261e-12
-2.14008e-12
-8.68296e-15
0
1.76569e-12
-5.86113e-13
7.36948e-13
4.71281e-13
-5.48462e-12
-1.48212e-13
4.99511e-13
-3.29867e-12
-3.17208e-12
0
-1.46882e-12
-7.78674e-14
4.77383e-12
-5.08752e-12
-5.658e-12
-8.04831e-13
-3.31464e-12
-5.03604e-12
2.21736e-12
3.64995e-13
2.25518e-12
2.64737e-12
-1.88195e-12
-5.86422e-14
-3.12588e-13
2.27585e-13
5.34298e-12
1.10182e-13
0
-2.77985e-12
2.21513e-12
8.73779e-13
1.37105e-13
3.4306e-15
-3.5724e-12
-4.1649e-13
1.89256e-13
2.8553e-12
2.6454e-14
8.95699e-12
-5.82248e-12
6.16051e-12
4.69798e-12
-5.87659e-13
-5.86412e-13
1.03386e-12
-2.98995e-13
-1.76999e-13
-2.27965e-12
9.05599e-14
3.06436e-12
1.56181e-11
0
1.17685e-11
1.34915e-11
6.14063e-12
-4.32655e-12
2.40631e-12
-2.10985e-12
-5.86795e-13
-8.50812e-12
-7.51069e-12
3.87008e-13
-3.62624e-12
-1.02759e-11
1.11623e-11
3.96508e-12
-3.18502e-12
-4.2765e-12
5.87665e-13
-1.17684e-12
-7.18848e-12
3.43466e-12
3.17653e-12
4.10499e-12
7.62566e-12
-2.2517e-13
3.14782e-12
-9.34392e-13
-3.59904e-13
1.27794e-13
-2.99458e-14
-2.8547e-12
-3.57027e-12
2.98972e-13
3.2389e-12
7.198e-12
-5.11066e-12
6.98897e-12
6.48713e-12
7.3555e-12
7.83208e-12
-7.70689e-12
1.94593e-14
3.52887e-13
-6.99794e-13
-4.8448e-13
-9.14675e-14
-1.3843e-13
1.38116e-13
-7.2073e-13
9.4719e-13
-7.46461e-13
-2.2384e-12
-4.20126e-12
-3.54641e-12
-8.24972e-14
-2.50263e-13
1.27542e-13
5.71808e-13
2.71412e-12
2.65658e-13
3.43184e-12
-1.5309e-14
-4.77911e-12
-6.55666e-12
-4.75068e-12
4.16796e-12
8.93643e-13
5.94636e-13
-5.94261e-13
1.49546e-12
5.69557e-13
-9.22876e-15
-4.12796e-14
1.22409e-12
-1.03502e-11
-8.27092e-12
9.47586e-12
1.00607e-11
-2.67725e-11
1.92889e-12
2.29733e-12
2.01768e-12
5.93939e-13
-9.79704e-12
7.455e-12
-5.77474e-13
1.60502e-12
3.57278e-12
1.06187e-11
6.01217e-13
3.16604e-12
4.99249e-13
-2.9794e-13
1.6023e-11
1.20343e-12
3.23329e-13
4.74417e-13
-3.86579e-12
5.51699e-13
-6.89583e-12
-1.36064e-14
1.91639e-12
-1.18867e-12
-1.41803e-11
6.62224e-13
1.84765e-12
2.72349e-12
2.99045e-13
-1.04789e-11
-7.5278e-12
-6.45071e-12
6.92023e-12
2.99826e-12
-2.66327e-12
-5.72778e-12
-1.9176e-14
-2.68537e-12
-1.45435e-13
2.23768e-14
-2.88145e-12
2.17367e-12
-4.97783e-13
2.23916e-12
-5.60818e-13
-2.9539e-12
-1.49232e-13
0
2.01299e-13
-4.29632e-12
1.43055e-14
-2.22438e-12
-2.99925e-12
3.26436e-12
3.28144e-12
2.31133e-12
2.66034e-12
9.24805e-13
-4.76223e-12
1.37366e-11
-9.94964e-13
-4.44937e-12
2.96759e-12
-5.92934e-13
-4.14972e-12
-6.54344e-12
-2.87469e-12
4.35373e-14
5.94406e-13
2.44624e-12
-5.89365e-13
-4.13644e-12
5.91079e-13
2.44824e-13
-1.41119e-11
3.53084e-12
-2.47759e-12
2.56137e-12
-4.40505e-13
-1.80352e-13
8.36622e-13
-3.96337e-13
-2.27998e-12
-2.41469e-12
5.71361e-13
-4.18213e-13
-2.93206e-12
2.85068e-13
1.61587e-12
0
-1.68098e-12
6.39061e-12
-2.96356e-12
2.0311e-12
-5.82107e-13
-5.33784e-12
1.60086e-13
1.16931e-12
-5.34275e-12
-1.47928e-12
-1.00023e-12
-5.316e-13
1.8199e-12
-5.13743e-13
5.81331e-13
5.82386e-12
-3.44581e-12
6.65145e-13
-5.93058e-13
-9.1944e-12
7.19875e-12
-7.34979e-12
3.23341e-12
-2.34628e-12
5.76854e-13
6.51651e-12
-2.21277e-13
3.52286e-12
5.92908e-13
1.35257e-11
3.42397e-12
-1.80276e-11
-1.16408e-12
1.74496e-12
1.24921e-11
-2.72956e-13
1.01065e-12
3.1309e-12
1.48713e-12
8.6075e-12
-6.36647e-15
6.7092e-12
-7.11888e-12
-3.85123e-12
-6.21005e-12
0
3.41304e-12
-3.14506e-12
3.18468e-14
4.99523e-13
-1.19031e-13
2.84431e-12
8.38746e-14
2.21545e-13
-1.38472e-12
-3.93996e-12
2.0843e-12
4.00872e-12
4.74804e-12
3.4079e-12
-2.22027e-12
5.8052e-14
0
-5.92067e-13
-2.88748e-12
9.09254e-13
1.05807e-12
0
1.07359e-12
-3.54994e-12
7.90217e-14
-5.90751e-13
4.93115e-13
-1.74048e-13
3.54671e-12
-1.08783e-12
2.52204e-12
1.77804e-12
3.08344e-13
-2.94682e-13
-4.22575e-12
-2.94155e-13
-5.63668e-13
-2.93793e-13
2.93963e-13
1.28653e-13
-2.37035e-12
-2.51628e-12
1.50149e-12
2.93731e-13
2.93544e-13
-5.57193e-12
6.5598e-12
5.59427e-12
-1.46492e-12
5.13874e-13
4.43986e-13
-1.4798e-13
-3.39906e-12
-2.21634e-15
1.74221e-12
-1.73946e-13
1.09289e-13
-4.16629e-12
1.91183e-13
-1.42553e-12
-2.95927e-12
-2.95962e-13
1.38703e-12
4.70988e-12
1.55079e-12
9.68206e-13
-1.48598e-12
-1.92384e-12
1.37216e-12
2.47095e-12
1.47966e-13
-7.40093e-13
4.4012e-13
7.64498e-12
-1.37722e-12
6.24808e-12
0
-9.44246e-13
-9.00981e-13
3.60675e-13
-4.44021e-13
5.71004e-13
2.95586e-13
5.47361e-12
-8.79818e-13
2.52055e-13
-8.38887e-14
1.01294e-11
-7.03298e-12
-2.94933e-13
-1.55422e-12
-2.96747e-13
-2.01535e-12
-5.909e-13
3.1995e-12
2.94883e-13
-3.03929e-12
5.53019e-12
-1.52237e-13
-1.19087e-12
4.45155e-13
3.15774e-13
-1.29392e-13
-3.5055e-13
0
-2.15934e-12
4.43925e-13
-1.47998e-12
1.48151e-13
-1.48361e-13
2.96927e-13
-1.48202e-13
2.96244e-13
3.9963e-12
2.95869e-13
2.5147e-12
2.95833e-12
0
-5.62488e-12
-3.25869e-12
-3.26032e-12
-1.18496e-12
-3.10756e-12
2.51288e-12
2.21602e-12
-1.8096e-12
-2.65972e-12
5.31844e-12
1.47765e-12
3.84738e-12
2.66602e-12
-2.07209e-12
0
-7.74557e-13
-1.14329e-12
-1.47659e-13
1.99347e-12
-2.2129e-13
-1.1065e-12
-2.36483e-12
0
-2.51469e-12
-2.95463e-13
-7.74389e-13
-2.73231e-12
-1.96146e-12
-3.66385e-12
-2.28992e-12
-3.54084e-12
-1.47739e-13
2.95839e-12
5.91588e-13
-2.51157e-12
-1.80743e-12
0
3.11494e-12
4.00462e-12
1.33233e-12
2.95348e-13
-4.43309e-13
1.1832e-12
3.40162e-12
-1.47734e-13
-1.9916e-12
-3.10519e-12
-2.52179e-12
7.41631e-13
-2.59058e-13
8.12185e-13
-2.9554e-12
2.95807e-13
2.9585e-13
-6.35141e-12
-2.94841e-12
3.83769e-12
1.07363e-12
-3.29421e-12
-1.92062e-12
2.47105e-12
-3.10231e-12
0
-2.81226e-12
1.14511e-12
7.74386e-13
-9.58516e-13
0
-6.64541e-13
-1.51228e-12
9.95858e-13
-5.17172e-13
2.36831e-12
2.96229e-13
-3.10749e-12
-1.92081e-12
-2.36337e-12
2.84364e-12
3.69401e-12
0
3.10388e-12
3.8474e-12
-4.44366e-13
3.11194e-12
0
8.88035e-13
-1.47926e-13
-2.81039e-12
-2.5144e-12
-8.87535e-13
-1.59143e-12
6.85091e-12
-2.07477e-12
8.88311e-13
-5.9202e-13
1.47947e-13
2.66232e-12
-7.39478e-13
-1.47896e-13
1.4791e-13
-5.91807e-13
-5.92028e-13
-1.33246e-12
-2.66405e-12
-3.40253e-12
7.39324e-13
4.43494e-13
0
-3.1046e-12
1.47835e-13
1.47871e-13
2.51495e-12
0
-4.88203e-12
-2.51362e-12
-2.95575e-13
-2.21671e-12
-2.36518e-12
-5.17393e-12
1.47788e-13
5.61614e-12
1.47862e-13
0
1.33105e-12
-2.36507e-12
-1.47768e-13
2.36513e-12
2.95848e-13
-3.84614e-12
1.47841e-13
2.95578e-13
-1.47829e-13
1.03529e-12
-3.10539e-12
3.69527e-12
-5.9116e-13
-2.95797e-13
-3.70134e-12
2.96117e-13
-1.4793e-13
-2.36526e-12
5.46983e-12
2.21829e-12
-1.47875e-13
2.21712e-12
3.10348e-12
2.95791e-13
1.48054e-13
0
2.21895e-12
-4.43485e-13
0
2.21832e-12
1.47893e-13
2.9562e-13
6.35318e-12
-1.47804e-13
0
-1.47931e-13
-2.95684e-12
-1.47787e-13
3.10447e-12
0
-2.51496e-12
-1.47854e-13
1.47768e-13
0
-3.39989e-12
-1.33045e-12
3.69475e-12
-7.38965e-13
-7.39345e-13
-4.43846e-13
0
0
-4.43568e-13
-2.80863e-12
0
1.47834e-13
-3.99141e-12
-4.43589e-13
-2.81082e-12
-4.44018e-13
0
4.4399e-13
4.43817e-13
1.47899e-13
-1.47888e-13
1.29569e-13
1.60842e-12
-3.71919e-14
2.59037e-13
2.96102e-13
2.36752e-12
5.91782e-13
-2.07082e-12
1.47896e-13
1.331e-12
-5.91561e-13
0
2.51465e-12
8.87693e-13
1.47972e-13
-1.47943e-13
0
7.39417e-13
-2.21804e-12
2.36595e-12
-2.2181e-12
-2.95748e-12
-4.43667e-13
-2.95836e-13
0
2.36655e-12
-5.91516e-13
1.47854e-13
-2.21784e-12
-2.9575e-13
-2.80967e-12
-2.51367e-12
2.21793e-12
1.92251e-12
2.95828e-13
2.66191e-12
7.39291e-13
-2.95695e-13
3.25327e-12
2.07086e-12
1.77507e-12
2.07044e-12
2.95725e-12
-7.3935e-13
-7.39462e-13
-7.39363e-13
2.36565e-12
2.51355e-12
2.95813e-13
-5.77076e-12
-4.14326e-12
4.43772e-13
5.91512e-13
-2.95741e-13
-1.33096e-12
1.47872e-13
0
-2.95707e-13
4.43713e-13
0
-1.03582e-12
-2.95848e-13
-3.4012e-12
0
3.25349e-12
-1.47882e-13
3.10493e-12
2.9568e-12
1.47869e-13
3.25415e-12
3.25429e-12
6.21131e-12
-5.9145e-13
3.25318e-12
2.95791e-13
1.47907e-13
0
-2.95691e-13
2.95696e-12
-5.91484e-13
-3.40114e-12
-1.47862e-13
0
0
-2.36669e-12
-1.47939e-13
3.40191e-12
2.51391e-12
5.91452e-13
-3.40094e-12
-1.62656e-12
-5.9148e-13
1.47885e-13
-5.9167e-13
-2.36716e-12
1.47964e-13
0
1.4791e-12
-1.47889e-13
0
2.38457e-12
1.20151e-12
2.81037e-12
-3.99453e-12
-2.95943e-13
-2.95844e-13
1.03536e-12
1.47892e-13
-2.95763e-13
2.21818e-12
2.9576e-13
-2.9577e-13
5.91586e-13
0
1.47926e-13
3.25392e-12
3.6973e-12
-8.87275e-13
-7.39376e-13
2.36605e-12
7.39399e-13
-8.87279e-13
1.47885e-13
-2.51426e-12
2.95821e-13
2.51406e-12
1.47875e-12
-4.43609e-13
-1.47878e-13
2.21836e-12
-1.03525e-12
-2.80981e-12
-3.25332e-12
-4.4365e-13
2.95786e-13
2.07019e-12
4.43596e-13
-2.95742e-13
-1.47895e-13
2.81051e-12
3.40227e-12
1.47905e-13
-2.95768e-13
-8.87265e-13
-7.39405e-13
3.10513e-12
-4.43588e-13
7.39387e-13
2.95827e-13
0
-2.95908e-13
4.43779e-13
2.5142e-12
-2.0703e-12
-2.21815e-12
0