/*--------------------------------*- C++ -*----------------------------------*\
  =========                 |
  \\      /  F ield         | OpenFOAM: The Open Source CFD Toolbox
   \\    /   O peration     | Website:  https://openfoam.org
    \\  /    A nd           | Version:  10
     \\/     M anipulation  |
\*---------------------------------------------------------------------------*/
FoamFile
{
    format      ascii;
    class       volScalarField;
    location    "0.1";
    object      gradTy;
}
// * * * * * * * * * * * * * * * * * * * * * * * * * * * * * * * * * * * * * //

dimensions      [0 -1 0 1 0 0 0];

internalField   nonuniform List<scalar> 
47104
(
4.37803e-13
4.37779e-13
2.88613e-13
-9.20384e-15
-4.45675e-13
2.97116e-13
2.37016e-12
3.07238e-13
-2.88822e-13
-2.09677e-12
6.04907e-13
4.36832e-13
6.2466e-13
1.41855e-12
-2.60679e-13
-5.6433e-13
-1.2094e-13
-1.31434e-13
1.18869e-13
3.10903e-13
1.48036e-12
6.87992e-13
4.87872e-14
3.80449e-13
5.22688e-13
-9.03144e-14
-2.55312e-12
-1.04742e-12
-4.27947e-14
2.14874e-12
-1.33482e-13
3.07703e-13
-9.81717e-14
-1.67048e-12
8.62759e-14
6.73848e-13
4.8656e-14
1.65303e-13
-3.33741e-13
-4.22586e-13
-1.67046e-12
-7.02995e-13
1.06935e-12
-1.19533e-13
1.16798e-12
6.38802e-14
1.64311e-12
3.83547e-13
1.78482e-12
-3.67656e-13
-3.57897e-13
1.80393e-12
-3.46931e-13
2.46253e-15
-1.75631e-13
-2.94533e-13
-6.09484e-14
1.27164e-13
1.55169e-12
1.31137e-13
1.02119e-13
3.98829e-13
-7.84773e-13
-2.37962e-13
-3.7517e-12
2.44905e-14
-1.79484e-12
-1.03148e-13
-1.87136e-12
5.07121e-13
1.98883e-13
-1.66474e-12
-8.34296e-14
7.56291e-13
1.36559e-13
2.51101e-13
-1.00785e-13
2.2322e-12
-1.7198e-12
2.04356e-12
-2.16963e-14
-2.53039e-13
3.76048e-13
1.60857e-13
2.59872e-12
-1.858e-12
-1.58003e-14
-6.03297e-13
-1.56194e-12
-7.17573e-13
9.51284e-15
1.39735e-13
4.37336e-13
-7.34223e-13
1.48533e-13
-1.93097e-12
1.57886e-13
-2.68985e-12
-1.79806e-12
-1.77962e-12
-8.91003e-14
0
-2.83729e-12
-1.49227e-13
1.49178e-13
-1.49177e-13
2.98452e-12
1.6426e-12
-1.79213e-12
6.01163e-14
-1.36061e-12
4.51161e-14
1.75838e-12
2.69195e-12
4.86125e-13
-2.61759e-13
-8.9731e-13
-5.9859e-13
2.20093e-14
-4.41381e-13
-1.9602e-13
-1.14037e-13
3.10543e-12
2.22885e-12
-4.89917e-13
-2.49477e-13
-3.18122e-12
-2.10042e-12
3.46819e-15
-1.86315e-12
1.78771e-12
9.35895e-14
-3.26666e-13
-4.1081e-12
1.70742e-12
4.99977e-12
-9.10005e-15
2.20964e-13
2.89416e-14
-2.1471e-12
-1.45372e-12
-1.03735e-13
5.28024e-12
4.56367e-12
-1.29591e-12
-4.96131e-12
3.60442e-13
2.29084e-13
-2.98079e-13
5.50461e-13
-2.03923e-12
2.38201e-12
-4.44949e-12
-1.0435e-13
9.01084e-13
4.53536e-14
-5.98503e-13
-4.71055e-13
-1.92545e-12
3.91278e-12
1.86788e-12
-3.13916e-14
-3.90485e-12
-3.40794e-12
3.62241e-12
2.38499e-13
3.16236e-14
3.07323e-13
2.37825e-12
1.62329e-12
1.68678e-12
-5.90827e-13
3.56259e-12
3.47091e-12
-3.78439e-12
-1.06228e-12
1.8806e-13
-6.00728e-14
1.70749e-12
-3.78763e-12
-1.89758e-13
-4.82203e-14
4.11472e-13
-1.68219e-12
-1.12168e-13
-2.24341e-12
-2.69166e-12
-3.36682e-13
-9.39563e-14
-1.00486e-13
0
-1.7919e-12
-1.6422e-12
-2.9838e-13
4.47445e-13
-2.08815e-12
-1.34283e-12
1.19447e-12
2.98674e-13
1.49211e-12
2.09334e-13
4.47844e-13
-2.38624e-12
-2.53307e-12
-1.34132e-12
-4.47107e-13
4.47012e-13
-1.49134e-13
1.04488e-12
6.01426e-14
-1.35951e-12
-5.61921e-12
-4.92079e-12
-2.95441e-12
3.62977e-13
6.45519e-13
-7.50182e-13
-3.44167e-13
-1.23561e-13
1.50605e-13
-2.29043e-13
3.30677e-12
-3.19387e-12
-4.39896e-13
-1.85979e-12
-2.85872e-14
-2.94043e-13
1.15821e-12
-9.50308e-14
-2.51455e-13
1.62858e-12
-9.3534e-13
2.65823e-12
-6.32703e-09
-9.338e-09
-9.59634e-09
-8.22509e-09
6.16464e-12
-1.91789e-13
-5.20097e-14
-2.64721e-13
5.93017e-13
-4.35567e-12
-6.87258e-10
1.36912e-10
1.47276e-10
8.1701e-11
5.95608e-12
1.47736e-14
3.62899e-15
-3.03641e-14
2.38697e-13
4.65968e-12
1.56337e-10
-2.90543e-11
-3.67508e-11
-2.1599e-11
1.68775e-12
2.56016e-13
6.73801e-14
4.6866e-13
-2.28042e-12
2.89537e-12
2.05603e-09
-2.61394e-10
-2.80242e-10
-1.41021e-10
-1.41624e-11
-6.09903e-12
-2.97838e-13
-5.37583e-14
1.15607e-12
-2.85767e-12
5.05923e-11
-4.76572e-11
-4.92283e-11
-1.7735e-11
-6.61824e-12
1.06544e-11
1.67203e-13
4.36654e-14
-2.98428e-13
1.29048e-13
-3.71437e-12
-2.45231e-13
-3.40749e-13
-1.76911e-14
4.68081e-12
-4.10588e-12
1.82947e-13
1.49184e-13
-2.08929e-12
2.83258e-12
-1.34064e-12
1.19204e-12
-2.98024e-13
-8.93881e-13
1.93846e-12
5.97034e-13
-2.98375e-13
-1.93504e-12
-2.97288e-13
-1.62433e-12
-1.46709e-12
-8.79014e-13
4.54161e-12
2.93427e-13
-2.21474e-12
-1.48613e-12
-2.08353e-12
-2.17458e-12
1.40997e-13
-3.31322e-12
3.75865e-10
3.69131e-10
3.73664e-10
3.67437e-10
2.18301e-10
-3.31693e-12
-1.52983e-13
1.23124e-13
-2.9601e-13
-3.57777e-11
8.51212e-07
8.76518e-07
8.84707e-07
8.6994e-07
9.20269e-07
2.38207e-10
3.02749e-13
4.7008e-13
-1.94737e-12
-3.82654e-09
-0.169334
-0.254981
-0.256204
-0.2532
0.0218602
2.26873e-10
1.24697e-13
-1.77096e-12
-1.3267e-12
-3.92924e-12
-0.000863966
-0.00295711
-0.00308307
-0.00280928
0.000129737
-6.57506e-12
1.8086e-12
-1.95156e-13
1.74715e-12
9.52894e-11
5.39774e-05
0.000175505
0.000184256
0.00016553
3.50718e-05
3.56393e-12
1.34905e-13
3.69329e-12
1.08186e-12
3.23874e-10
0.0023279
0.00837145
0.00859716
0.00805458
-4.80844e-05
-1.32513e-11
3.06581e-14
-1.21154e-13
1.28507e-12
8.78603e-09
0.123468
0.164316
0.164925
0.163264
-0.0212867
-9.36874e-11
-1.45205e-13
-1.61567e-12
2.64375e-13
5.24984e-09
1.34016e-08
6.59721e-09
6.19284e-09
8.01058e-09
-1.58262e-08
1.04606e-13
3.49824e-14
-1.48842e-13
-5.94368e-13
3.5427e-12
7.33366e-13
1.75775e-12
1.46488e-13
7.335e-13
-1.47648e-13
2.82383e-12
2.977e-13
-2.37864e-12
4.45245e-13
-1.17558e-12
-4.35466e-13
-2.89149e-13
5.78327e-13
8.71134e-13
5.87828e-13
-4.45151e-13
-1.48635e-12
-2.90652e-12
6.51133e-13
-4.54154e-13
6.37101e-10
-2.54433e-09
-2.29576e-09
-3.06373e-09
-2.87751e-11
-6.74007e-14
-2.83001e-12
2.07189e-12
-2.95076e-13
-9.32657e-08
-0.118544
-0.144583
-0.144855
-0.144209
0.00635807
2.92506e-10
1.47781e-12
2.49822e-12
-9.28872e-12
0.00342397
-1.39978e-07
3.25274e-12
-7.89924e-14
9.17948e-12
8.65244e-05
1.35795e-08
2.87854e-12
1.69729e-13
-3.24907e-12
1.9083e-05
-2.3204e-09
-5.88004e-13
2.86466e-14
-1.96922e-11
-0.000159741
-5.75849e-08
-3.00164e-12
-7.03406e-14
-6.99319e-12
0.000140113
5.00481e-08
3.05652e-13
-2.56807e-13
-3.56999e-12
3.18163e-08
-2.51068e-06
1.26503e-05
1.26435e-05
1.29055e-05
-1.38181e-06
1.64242e-12
3.77192e-14
-1.4865e-13
5.93432e-13
5.87608e-13
-4.35385e-13
-2.16835e-12
1.44572e-13
4.06503e-12
-1.46954e-12
2.96801e-12
-1.48668e-13
-1.93318e-12
-2.07984e-12
0
7.25182e-13
-2.88657e-13
-1.58776e-12
-1.451e-13
2.0595e-12
2.22829e-12
0
-1.57389e-13
-2.01379e-12
2.5811e-12
1.36795e-09
-2.84921e-09
-2.53147e-09
-3.5095e-09
-3.39337e-11
-8.22009e-13
1.82115e-12
1.94107e-12
1.18755e-12
-9.72627e-08
-0.121901
-0.150899
-0.151281
-0.150361
0.00659843
3.05748e-10
-1.53657e-12
3.42768e-14
-1.96033e-11
0.0042372
-1.79868e-07
-2.05951e-12
1.80344e-13
4.0476e-12
0.000110818
2.71782e-08
2.89243e-12
-1.39278e-13
1.68319e-12
1.35914e-05
-4.43152e-09
1.9652e-12
1.85033e-12
-2.73838e-11
-0.000423454
-1.09331e-07
-2.51482e-12
1.66785e-12
-3.24631e-13
-2.15718e-05
5.63006e-08
-1.7247e-12
-1.8211e-12
4.86286e-13
3.25298e-08
-2.32085e-06
2.08787e-05
2.0954e-05
1.89595e-05
-7.37846e-07
4.44702e-12
1.80649e-12
-1.63551e-12
0
0
2.32022e-12
1.01018e-12
-2.88653e-13
0
4.41173e-13
4.15935e-12
-2.9742e-13
-1.04154e-12
-5.94755e-13
1.47173e-13
8.70755e-13
-1.44395e-13
1.44409e-13
4.35577e-13
-7.36164e-13
7.43417e-13
1.63643e-12
-4.01394e-12
-5.54648e-13
-5.00435e-12
1.6506e-09
-2.48107e-09
-2.14807e-09
-3.19949e-09
-3.02621e-11
6.70065e-14
9.97215e-14
-7.93448e-14
3.86841e-12
-9.73328e-08
-0.122059
-0.151188
-0.151586
-0.150635
0.00660734
3.10363e-10
-2.17187e-12
2.78878e-12
-3.27813e-11
0.0042387
-1.79701e-07
-1.77635e-12
-2.4076e-12
9.93926e-12
0.000113789
2.82567e-08
4.13824e-14
3.63016e-13
-7.25551e-13
1.06756e-05
-4.61983e-09
1.60428e-12
2.65506e-12
-2.83154e-11
-0.000221756
-1.11506e-07
3.09058e-12
-3.46697e-13
-4.94679e-13
0.000162315
5.65204e-08
-1.70042e-13
-6.03564e-15
-4.04668e-12
3.25906e-08
-2.3839e-06
2.09656e-05
2.10474e-05
2.0304e-05
-1.47157e-06
3.02234e-12
-2.64343e-12
1.48765e-13
-2.22939e-12
1.91276e-12
-1.88636e-12
2.74316e-12
2.3102e-12
-4.35407e-13
-2.64912e-12
1.18943e-12
-1.48797e-13
0
3.71914e-12
-5.89041e-13
0
-1.01146e-12
-4.33524e-12
4.06796e-12
1.47321e-13
-7.43831e-13
-5.9536e-13
7.45202e-14
5.16357e-12
8.07292e-13
1.68828e-09
-2.45828e-09
-2.12433e-09
-3.18009e-09
-3.05902e-11
2.59894e-12
-5.44039e-13
-3.88111e-13
-5.95304e-13
-9.59619e-08
-0.122059
-0.151213
-0.151612
-0.150658
0.00660739
2.95439e-10
1.7754e-12
-3.82e-13
5.74424e-11
-0.000420189
-1.79206e-07
-2.41061e-15
5.12751e-13
1.27002e-11
0.000181957
2.82814e-08
-1.64592e-12
-1.89169e-12
2.1487e-12
1.16217e-05
-4.62371e-09
-5.38984e-14
3.12149e-13
-3.27901e-11
-0.00021554
-1.11644e-07
-9.3593e-14
2.25515e-12
5.57424e-13
0.000162715
5.65569e-08
2.49954e-13
-5.64922e-14
-4.35526e-12
3.25175e-08
-2.37659e-06
2.09734e-05
2.10541e-05
2.01157e-05
-1.45951e-06
-2.07386e-12
1.34943e-13
1.48836e-13
1.33835e-12
-2.79718e-12
8.71187e-13
2.74507e-12
1.58942e-12
2.1787e-12
2.94541e-13
1.33887e-12
1.4887e-13
-4.46712e-13
-3.42285e-12
-8.84143e-13
7.26984e-13
2.3155e-12
-5.78913e-13
-1.30904e-12
-8.84432e-13
7.44105e-13
-2.97795e-13
-5.93999e-13
-2.41396e-12
-1.45958e-12
1.49968e-09
-2.71706e-09
-2.39802e-09
-3.39639e-09
-2.78606e-11
1.14448e-13
-2.56291e-13
-6.04487e-15
-6.75496e-13
-9.54719e-08
-0.122017
-0.1511
-0.15149
-0.150551
0.00660614
2.97785e-10
9.6681e-14
1.01708e-13
5.05566e-11
-0.000734654
-1.76801e-07
-9.21375e-14
1.64013e-12
1.19384e-11
0.00017469
2.72415e-08
1.74808e-12
-2.71384e-13
-4.08875e-12
1.33065e-05
-4.41506e-09
-6.45375e-13
-1.86996e-12
-2.56746e-11
-0.000211826
-1.09379e-07
-1.86982e-12
3.00231e-13
-6.87304e-12
0.000162316
5.64586e-08
5.87275e-13
5.35928e-14
6.16796e-12
3.24213e-08
-2.25769e-06
2.09189e-05
2.09948e-05
1.90739e-05
-7.38258e-07
4.44432e-12
-4.85014e-13
1.48892e-13
-1.04133e-12
-4.41936e-13
1.4537e-12
-3.0387e-12
1.44715e-13
-1.01793e-12
2.94726e-13
0
-7.44626e-13
-2.6807e-12
2.97707e-13
4.42461e-13
3.20612e-12
-7.25796e-13
-1.45163e-13
0
-8.85047e-13
-3.87036e-12
1.48938e-13
-2.61606e-12
6.848e-13
-1.12668e-12
2.88186e-09
2.51758e-09
2.80339e-09
1.69898e-09
-3.92934e-11
-8.00249e-12
1.62428e-12
4.49308e-13
-2.97621e-13
-9.66675e-08
-0.120091
-0.146801
-0.147105
-0.146382
0.00644586
2.69166e-10
2.38278e-12
2.47132e-12
-3.60109e-11
0.00361103
-1.16671e-07
-1.67428e-12
-1.03706e-13
-1.16227e-11
9.02911e-05
-1.12421e-09
-2.83093e-12
5.50543e-13
1.10274e-12
1.18129e-05
2.28399e-10
2.42094e-13
3.87039e-12
1.21062e-11
-0.000158601
3.13778e-09
1.96509e-12
-3.82089e-13
-7.74061e-13
0.000150092
4.4903e-08
2.49431e-13
-1.96449e-12
-3.51278e-12
3.20757e-08
-5.20333e-06
-3.71668e-06
-3.85637e-06
-2.54485e-06
-1.33972e-06
1.24044e-12
-1.66868e-12
0
1.48804e-12
2.35898e-12
2.47683e-12
-7.25688e-13
0
-3.9345e-12
-3.53934e-12
0
-4.46885e-13
0
5.95421e-13
-4.42542e-13
-2.33217e-12
1.30651e-12
-2.17745e-12
5.82946e-13
7.37466e-13
-4.46621e-13
-1.63851e-12
3.13892e-14
-3.60994e-13
3.66855e-13
-3.89477e-12
1.83824e-12
-8.38627e-12
-1.76212e-12
-2.02544e-12
-3.00363e-12
-1.27908e-13
2.88018e-16
2.97635e-13
-4.38731e-10
-7.23283e-07
-7.87442e-07
-7.86542e-07
-7.89206e-07
-6.20539e-07
4.60343e-12
1.76454e-12
1.09307e-13
2.69041e-13
6.73827e-09
-2.29295e-11
2.41651e-12
1.737e-13
-3.57556e-12
1.06664e-10
2.86385e-12
-1.54641e-13
-1.95773e-12
3.02387e-12
2.68511e-11
-5.23068e-12
-4.55379e-12
4.10068e-14
-3.6231e-13
-3.07045e-10
6.48083e-12
-4.9522e-14
1.47465e-12
-2.94757e-13
-5.58147e-08
-2.32637e-10
2.34412e-12
-2.95729e-13
4.65127e-13
7.79101e-11
-2.27355e-09
-2.3861e-09
-2.39601e-09
-2.36984e-09
5.13746e-09
3.78694e-12
-1.49917e-13
0
-4.46438e-13
-8.84664e-13
2.18555e-12
-2.75773e-12
7.25791e-13
1.31169e-12
7.3744e-13
-5.95468e-13
1.48971e-13
-5.95661e-13
-1.78598e-12
1.17932e-12
2.90917e-13
0
-1.30263e-12
-2.03581e-12
2.94762e-13
-1.63746e-12
1.4895e-13
-2.82479e-12
-6.01549e-12
-1.46759e-12
1.68466e-13
2.36455e-12
-1.84226e-13
1.41401e-12
3.39859e-13
9.24753e-13
-1.64153e-12
-2.18957e-12
4.16751e-12
-7.12815e-12
7.9612e-12
-7.21936e-12
-1.58728e-12
-2.92524e-13
5.0324e-12
0
-4.91244e-13
-2.72807e-13
4.86448e-12
6.94574e-12
8.16792e-13
1.72143e-12
-1.42497e-13
-5.1438e-12
-9.49512e-13
-3.3075e-12
7.77308e-14
2.6919e-13
9.31969e-14
2.4016e-13
3.51678e-12
-1.68741e-12
-1.75197e-12
4.19432e-12
3.34098e-12
-3.25816e-12
-2.87553e-12
-1.06552e-14
-3.76663e-12
-8.06094e-12
8.57489e-12
1.85931e-12
1.24801e-12
2.88377e-13
-2.59478e-12
-4.20705e-12
-3.14484e-12
1.68507e-12
1.16639e-12
-3.16904e-12
-5.09991e-12
2.73939e-12
-5.95753e-13
-2.82712e-12
-3.97839e-12
-2.90808e-13
1.15778e-12
1.01323e-12
-2.90952e-13
-4.12743e-12
-2.08382e-12
1.48958e-13
0
2.97617e-12
-2.9467e-12
7.26523e-13
3.18008e-12
-2.16813e-12
2.32432e-12
-4.41957e-13
7.44207e-13
-2.08513e-12
-1.25678e-13
9.55082e-13
-3.71848e-12
-2.98077e-13
2.83255e-12
2.09426e-13
2.81855e-12
-4.54132e-12
1.88974e-12
-3.18404e-12
2.23237e-13
1.19158e-12
3.36234e-13
-1.39957e-12
6.68618e-12
1.82152e-12
-2.88313e-13
2.73612e-12
-2.11366e-12
1.85288e-12
2.85435e-12
2.07921e-13
-5.81097e-13
-3.39261e-12
3.21837e-12
-7.93996e-14
-5.03852e-13
5.89732e-13
8.57462e-12
-4.27233e-13
-3.45292e-13
8.09648e-15
7.80296e-12
-4.10878e-12
-2.42131e-12
-1.1136e-12
-8.39834e-13
6.38374e-12
-2.23239e-13
8.33215e-13
-4.29086e-12
0
4.41056e-12
-3.05731e-12
2.68226e-13
1.08764e-12
3.52679e-13
1.08845e-11
9.53874e-13
-3.88092e-12
-5.57595e-12
-8.75693e-13
-7.18142e-14
3.16426e-12
-2.50693e-13
1.3403e-12
2.97563e-13
-1.03103e-12
1.59788e-12
1.15622e-12
1.01183e-12
-8.71871e-13
3.53602e-12
-8.92898e-13
2.23411e-12
0
5.95208e-13
5.89294e-13
2.32449e-12
1.44516e-13
-1.44507e-13
-3.63108e-12
2.20954e-12
7.44151e-13
-4.46793e-13
5.58469e-13
7.79856e-13
-2.68727e-12
-8.53431e-14
-4.63687e-12
-1.33822e-14
-1.12031e-13
2.68439e-12
-1.33929e-12
-1.83384e-13
-1.73594e-12
0
-2.05687e-13
4.40299e-13
8.48853e-12
7.428e-12
-1.98197e-12
7.20131e-13
-3.02003e-13
-2.01466e-12
2.5955e-14
7.72487e-13
1.16236e-12
8.17756e-14
-2.07344e-12
1.51586e-12
-4.36805e-12
9.4387e-12
-4.77981e-13
1.85712e-12
1.04428e-13
2.24458e-12
5.07893e-13
1.49839e-13
1.92623e-12
-2.30968e-12
2.19874e-12
8.46265e-13
1.51005e-13
6.16795e-13
-9.20824e-14
0
-8.15927e-12
7.29461e-13
-2.39853e-12
2.49829e-12
3.69579e-15
-6.57163e-13
3.92471e-12
-8.79234e-13
7.34117e-13
2.91805e-13
6.44742e-13
-4.37241e-13
-8.68218e-13
1.4891e-13
-1.48773e-13
3.6817e-12
2.75927e-12
-3.17878e-12
4.33491e-13
-7.26211e-13
-2.94576e-13
-1.488e-13
1.48931e-12
4.46681e-13
-8.92841e-13
0
-2.90671e-13
-2.89151e-13
-7.22827e-13
5.81136e-13
-5.89259e-13
3.12538e-12
1.78719e-12
4.73734e-13
6.09361e-13
1.71417e-12
3.99281e-12
-2.6393e-13
1.18392e-12
9.13024e-13
1.37933e-12
1.0296e-12
-1.58392e-13
2.58277e-12
2.97772e-13
-8.51589e-12
-5.31277e-12
-9.25912e-12
2.82778e-13
-3.84303e-12
-9.50722e-12
6.03911e-12
-8.71653e-14
1.87806e-12
8.11271e-13
-9.29742e-12
-1.07624e-11
2.12255e-12
-2.31288e-12
2.80883e-12
-2.94938e-12
5.58684e-12
-1.01709e-13
-1.68884e-12
6.74979e-13
8.55064e-12
9.27912e-13
-1.18743e-14
-1.1751e-13
-3.90516e-12
2.81878e-13
-9.61893e-13
5.95937e-14
4.25959e-14
-7.47586e-13
-7.50956e-13
-3.58614e-12
-2.51761e-13
-7.70342e-14
-8.55776e-13
-3.64899e-12
-1.52625e-12
-2.49065e-12
-5.87161e-13
-4.66828e-12
-2.8549e-12
3.33158e-12
-2.52777e-12
-1.4891e-13
-1.48774e-13
1.17826e-12
8.71586e-13
7.22733e-13
0
8.71612e-13
-4.41876e-13
1.48802e-13
-2.08508e-12
0
0
-2.94827e-13
2.91028e-13
4.34495e-13
-5.79292e-13
1.4547e-13
7.36904e-13
4.46519e-13
1.48946e-13
-6.247e-15
5.67092e-13
2.08621e-12
-4.14265e-12
-1.05247e-12
-8.92521e-13
-8.17122e-14
1.06847e-12
4.44101e-12
-8.19633e-14
-2.04974e-12
1.75187e-13
2.2991e-12
-3.53762e-12
1.97804e-13
-2.4773e-12
3.29124e-13
-4.46326e-12
-3.92235e-12
-2.33358e-12
-2.46482e-13
2.19421e-13
-1.97038e-11
3.51613e-13
1.39918e-13
2.12433e-12
-4.07025e-13
-8.27186e-12
4.46847e-14
5.26101e-13
2.89228e-13
-2.50749e-13
-1.32476e-13
-2.21086e-13
2.84392e-13
-2.50066e-12
1.37189e-12
-6.83467e-13
-3.41524e-14
1.57933e-12
-4.63543e-14
1.64655e-13
4.93403e-12
-6.42828e-12
-1.7846e-13
2.2349e-12
-2.02886e-13
3.40796e-12
-7.98583e-13
-3.73081e-12
3.07816e-12
2.04008e-12
7.31472e-13
6.58486e-12
-2.62263e-12
1.48925e-13
4.46364e-13
4.42051e-13
5.81811e-13
-1.73764e-12
-2.89608e-12
7.27251e-13
-2.9471e-13
-5.9528e-13
-2.53217e-12
-2.08506e-12
2.97705e-13
-2.95036e-13
0
0
-1.45235e-13
2.91569e-13
1.47512e-13
-2.23331e-12
2.97947e-13
-1.78116e-12
3.45599e-14
7.2052e-14
4.1011e-13
-3.80113e-13
-1.16005e-12
-2.33813e-12
-5.49265e-13
2.85497e-13
-1.66955e-13
2.20229e-12
8.92472e-13
-9.75346e-12
-4.32741e-12
8.53067e-12
1.93746e-12
3.4809e-12
-6.7354e-12
-5.49839e-12
-4.73315e-13
1.05659e-12
-3.50749e-13
7.75173e-13
8.72908e-13
-3.3882e-14
-3.54555e-13
-5.00605e-12
-4.10308e-13
5.30787e-13
4.67782e-13
6.38801e-13
4.37627e-12
-7.17077e-12
-9.00599e-14
2.11167e-13
4.61033e-13
7.50343e-13
-3.75836e-14
4.46518e-12
-4.37023e-13
6.65868e-13
4.98212e-13
-1.69469e-12
-5.57225e-12
5.58865e-14
-1.58397e-13
2.24552e-13
-1.20691e-12
3.35112e-12
-5.8959e-13
6.64459e-13
-1.76188e-12
2.70252e-12
4.8279e-13
1.34762e-14
-5.9584e-13
3.721e-12
1.47486e-13
-2.04079e-12
-1.16172e-12
0
8.74552e-13
2.35967e-12
1.48869e-12
-2.97966e-13
1.48953e-12
1.48879e-13
1.47521e-13
-1.45701e-13
1.01548e-12
-8.70392e-13
-1.45683e-13
1.62261e-12
-7.44535e-13
1.34087e-12
8.3724e-14
2.31381e-13
-3.61475e-12
5.89784e-12
2.54293e-13
2.54877e-13
2.13357e-13
-1.50123e-12
-1.68722e-13
1.85234e-12
9.66398e-13
2.97807e-13
6.04711e-12
-3.78284e-12
-5.36223e-12
7.01015e-12
-1.63674e-12
4.73581e-12
3.64517e-12
3.90005e-13
-8.19838e-13
3.87569e-12
-1.59922e-12
-9.40829e-13
-3.60293e-13
-3.1082e-12
-3.27497e-12
-2.73929e-12
-2.68082e-12
2.96105e-12
8.24468e-14
-3.45517e-13
7.49019e-12
-7.39181e-13
-6.32178e-13
-1.40848e-13
-1.88638e-13
2.55156e-13
2.32314e-14
-2.93586e-12
4.62995e-13
2.94556e-13
-4.79799e-13
2.92884e-13
8.04838e-13
2.18623e-13
3.37373e-13
7.84811e-13
-1.67769e-12
1.40044e-12
-1.77197e-12
1.2482e-12
8.05353e-13
1.31501e-13
8.21438e-14
-1.48979e-13
-1.93527e-12
-2.0646e-12
1.31084e-12
-7.25208e-13
0
-5.82578e-13
1.47472e-13
8.93374e-13
-1.49003e-13
2.97901e-12
4.46562e-13
-1.32677e-12
-2.61762e-12
-1.88094e-12
-2.02564e-12
2.47216e-12
-4.1276e-12
1.48875e-13
0
-2.61609e-14
-7.29237e-13
-6.59831e-13
1.30732e-12
2.17621e-13
6.21565e-12
1.73777e-12
3.46204e-12
1.95048e-12
6.95491e-13
-3.13168e-12
8.9366e-13
-8.85359e-14
-9.56922e-13
2.87721e-12
-6.78981e-12
-3.11078e-12
-1.23679e-11
-3.01964e-13
6.50433e-14
-4.42309e-13
-4.96233e-13
-4.05434e-12
3.7353e-12
-7.25969e-13
-2.2331e-12
2.73739e-13
-3.68269e-13
-7.22024e-12
1.91872e-12
4.17098e-13
-3.33585e-13
-2.13491e-12
3.61926e-12
-3.27484e-13
5.16934e-14
-2.57256e-13
-7.54107e-13
1.44019e-13
-4.54356e-12
2.39842e-13
-4.60371e-14
4.04498e-14
-2.34086e-12
-2.11574e-12
1.95849e-12
-3.91884e-12
1.35177e-12
2.25116e-12
1.31685e-12
-1.68571e-12
0
4.47016e-12
3.45332e-12
2.94021e-12
1.48969e-13
7.44181e-13
-7.36775e-13
-4.2155e-12
-1.44661e-13
1.59127e-12
-1.01754e-12
-1.32625e-12
0
2.38398e-12
1.48964e-13
1.48847e-13
-3.09463e-12
3.19713e-12
1.44573e-13
8.67464e-13
-7.26685e-13
2.0633e-12
5.95484e-13
4.46931e-13
1.3604e-13
-1.9236e-14
-1.67503e-12
6.18752e-12
2.91445e-13
1.50775e-12
6.52147e-13
-3.61021e-12
4.20063e-12
2.10367e-12
-1.07343e-13
2.97761e-13
-4.40434e-12
-5.05329e-12
1.86745e-12
-8.63993e-12
2.39795e-12
1.51094e-11
-2.71866e-12
-5.1389e-13
1.53258e-14
-3.60196e-13
-5.79878e-13
-2.94134e-13
-2.09807e-12
-1.00801e-13
-4.58734e-13
6.48771e-12
-3.53002e-12
1.0037e-13
-1.99132e-12
8.54293e-13
1.04638e-11
3.87427e-12
-2.57e-12
-4.76939e-14
-2.12769e-13
1.60016e-12
-1.92599e-13
-1.65802e-12
2.31405e-12
2.9824e-13
1.91091e-12
-1.87536e-13
2.72311e-12
-1.14005e-13
8.1649e-13
-3.16618e-12
-4.65173e-12
1.31859e-12
3.66976e-13
-2.48009e-12
8.98649e-13
-7.57841e-13
1.63218e-12
0
-8.92979e-13
1.62056e-12
1.30753e-12
3.90284e-12
-7.22748e-13
2.46977e-12
3.24121e-12
7.44316e-13
-1.49011e-13
0
-1.48899e-12
7.37024e-13
1.45375e-13
1.44649e-13
-3.47175e-12
2.90812e-13
1.32688e-12
1.48915e-13
2.68246e-12
1.75538e-12
-2.78881e-13
-1.02596e-12
-3.36864e-13
-2.82102e-12
-4.17844e-13
2.41001e-12
-1.0343e-12
4.41655e-12
1.45385e-16
4.2363e-12
-2.97767e-13
-1.81883e-12
-1.99312e-12
1.18798e-12
-9.04319e-12
-1.04182e-12
2.16e-12
-8.4574e-12
-2.0353e-12
2.83096e-13
-1.80067e-13
0
3.90909e-12
1.75303e-13
-2.04472e-12
7.28252e-13
5.89879e-13
-2.29297e-13
1.25402e-12
-2.82535e-13
-7.85911e-13
5.77452e-12
2.41331e-13
-2.11061e-13
1.2213e-13
5.53689e-14
1.22605e-11
-8.54811e-13
5.10697e-13
3.14753e-13
-3.88036e-12
1.64122e-12
8.78189e-13
3.72122e-12
-7.02357e-14
7.9124e-12
-8.76792e-13
1.67181e-12
2.93048e-12
-4.77118e-12
-2.04257e-12
4.06903e-13
-1.8942e-13
-2.2929e-12
0
-2.08423e-12
-2.21067e-12
-2.90705e-13
2.60333e-12
1.59092e-12
5.81394e-13
-1.47378e-13
-3.12706e-12
-3.57758e-12
0
-2.83164e-12
7.38094e-13
7.2858e-13
-5.80262e-13
1.01552e-12
-1.45758e-13
4.42963e-13
0
2.08784e-12
2.00904e-12
-1.99878e-12
-1.60055e-13
1.58669e-13
-6.17308e-13
5.41928e-13
-8.86462e-13
-2.8749e-12
-4.28919e-13
2.24541e-12
3.74837e-15
5.04602e-12
-2.16379e-12
-3.19118e-12
-7.1117e-14
5.69276e-12
1.11364e-12
7.62316e-12
1.81191e-12
-1.85066e-13
7.12476e-13
-5.06541e-12
-6.37591e-12
-1.21416e-13
2.43195e-12
-1.31577e-13
-2.09514e-13
-2.11706e-13
4.00847e-12
-6.30604e-13
-5.00715e-12
-1.26283e-14
1.01671e-11
-5.29057e-12
-4.53576e-12
3.55574e-13
-5.35097e-14
5.52848e-13
4.78692e-14
2.21711e-12
2.96913e-12
-6.31997e-12
1.48326e-13
6.35898e-13
5.84341e-12
1.00537e-13
9.95842e-14
-3.79495e-12
-1.30715e-12
-5.48766e-12
2.34575e-12
-1.23877e-12
-4.27519e-12
-2.52335e-13
-1.0575e-12
-5.96477e-13
1.34102e-12
-8.85583e-13
5.82802e-13
0
-1.01533e-12
2.91388e-13
1.47591e-12
1.19229e-12
-3.43099e-12
2.98535e-13
7.46338e-13
0
7.3395e-13
-5.85458e-13
-2.92744e-13
-4.40469e-13
-7.41076e-13
-1.04485e-12
2.98515e-13
1.58943e-13
4.74142e-12
-1.30631e-12
4.10586e-12
1.04546e-12
-1.12482e-12
3.22412e-13
-2.06542e-12
-3.32631e-12
2.51041e-12
-1.67587e-12
-5.60772e-12
5.36861e-13
-5.87572e-12
-3.1506e-12
4.37756e-12
2.64652e-13
1.14766e-12
3.01592e-13
2.15425e-12
-1.08604e-12
5.63931e-12
5.782e-12
2.67e-12
-3.78407e-14
1.48887e-12
-1.02985e-11
-6.26861e-13
-3.2416e-12
8.10225e-14
6.84732e-13
5.31518e-12
-1.11826e-11
3.15546e-12
2.41504e-13
5.4572e-13
-1.43171e-14
1.58559e-11
3.18423e-13
-2.17941e-13
-1.96547e-12
8.6446e-14
2.86976e-13
4.71832e-12
7.33905e-14
1.55954e-12
4.89092e-12
-6.93078e-12
-3.62449e-12
0
-1.75582e-12
2.18361e-13
3.79061e-13
-1.31348e-12
-6.49563e-14
3.58173e-12
-7.46135e-13
5.92712e-13
4.25655e-12
-7.3174e-13
-1.46347e-13
-7.33848e-13
2.96337e-13
1.04481e-12
0
0
-4.47944e-13
-3.42302e-12
-1.4822e-13
8.88429e-13
0
2.52001e-12
4.465e-13
1.34375e-12
-1.49211e-13
-1.76173e-13
5.68657e-13
-2.11817e-12
-2.49654e-13
-1.07782e-12
-1.08985e-12
5.81323e-12
3.99965e-12
3.85856e-12
1.85607e-12
-1.52049e-12
8.96191e-13
-1.39862e-13
2.94405e-13
-7.485e-13
6.14246e-12
2.09442e-12
-5.22391e-12
-3.32605e-12
1.48942e-13
-1.40057e-13
5.19987e-13
-2.0537e-12
3.41474e-12
-1.84806e-12
-1.37886e-12
2.89264e-12
-1.03947e-11
-4.01655e-12
2.11135e-12
-4.15131e-13
-4.96042e-12
3.87948e-12
3.11058e-12
-3.20473e-14
2.56094e-12
1.6727e-12
-8.91244e-12
1.04351e-12
-2.66946e-12
-1.87641e-12
-1.49744e-13
2.27833e-12
-4.32591e-12
-2.35935e-12
6.07545e-13
5.75312e-14
0
4.90369e-13
2.64741e-12
-3.24342e-12
2.01739e-13
-2.3756e-12
-1.10693e-13
7.62519e-13
2.08862e-12
-1.49261e-13
-2.52945e-12
0
1.48054e-13
-2.96104e-13
0
2.97592e-13
1.04504e-12
2.23849e-12
1.48886e-12
3.87098e-12
5.20124e-12
8.90057e-13
7.41413e-13
1.03805e-12
4.45042e-13
-2.67484e-12
-5.95512e-13
-1.63754e-12
2.14572e-12
6.15684e-12
2.75603e-12
1.64959e-13
-1.78844e-12
-4.17317e-13
-2.67457e-12
-4.42586e-12
1.65271e-13
1.85099e-12
-9.66528e-14
7.31398e-14
-5.82336e-12
-1.65989e-12
2.72146e-12
-5.79996e-12
1.31793e-12
6.98246e-13
2.97139e-13
1.4617e-12
1.83923e-13
-2.96371e-13
4.77818e-12
5.47571e-12
-1.8515e-12
-6.5474e-12
-6.45718e-12
1.03113e-11
-5.74103e-13
5.89179e-13
-9.50105e-14
3.26404e-12
-9.79177e-13
-5.09428e-12
3.70512e-12
3.38728e-12
3.71751e-12
6.57826e-12
4.0975e-12
4.31638e-13
6.45956e-14
-3.89409e-12
2.87105e-13
-3.96775e-12
-4.35841e-12
-2.95024e-13
-5.97331e-12
-1.0436e-11
-4.28868e-12
-2.24387e-12
1.53729e-12
5.17333e-13
-5.2299e-12
8.71302e-12
0
-4.24644e-12
6.20628e-12
7.12054e-13
-3.69981e-12
1.3765e-12
-3.88362e-13
-5.20648e-12
8.2158e-12
-3.95005e-12
7.38731e-12
8.34866e-12
1.02153e-11
-9.6167e-13
4.64082e-12
-1.96848e-13
-1.64293e-12
9.86387e-13
-3.77616e-12
-3.48188e-12
-1.33662e-12
-8.42123e-12
4.59532e-12
-5.19815e-14
-3.00538e-13
-1.68569e-12
-1.48846e-13
0
-7.42828e-13
1.18662e-12
3.85497e-12
-5.93095e-13
3.41145e-12
5.94313e-13
-4.4656e-13
0
4.45413e-13
2.37402e-12
-8.89018e-13
0
2.96116e-12
4.5876e-12
-2.51629e-12
-3.85422e-12
-4.89667e-12
-4.15683e-12
-2.72622e-13
1.21473e-13
3.87739e-12
-3.51416e-13
2.85024e-12
2.58222e-13
7.58922e-13
-2.97724e-12
-1.88887e-12
-2.26416e-12
-6.57868e-13
-2.32705e-12
1.93544e-12
4.06112e-13
-6.58976e-12
-1.26419e-12
1.92113e-12
-3.44488e-15
3.09088e-12
-3.69282e-14
1.89031e-13
-1.61115e-13
4.04885e-12
-3.25651e-13
4.78435e-12
-1.17214e-13
5.35044e-12
-4.18303e-13
6.20331e-13
3.36869e-13
-2.25358e-12
2.60995e-13
-5.00101e-12
3.30018e-12
1.34685e-12
-8.59791e-13
-9.40438e-12
-1.29457e-12
2.26949e-12
1.69382e-12
7.36474e-14
2.23175e-12
7.33044e-14
-3.042e-12
1.12243e-12
6.35537e-13
4.77199e-12
8.82313e-13
-2.79124e-13
1.52897e-14
4.63852e-12
-7.74559e-13
-3.92242e-13
-1.18923e-12
-3.30302e-12
9.76508e-13
-8.64887e-13
2.88864e-13
-3.02368e-12
2.78543e-13
-1.45085e-13
-3.42161e-12
3.49208e-13
3.50266e-12
-4.40953e-12
-8.82555e-13
1.10101e-12
1.78572e-13
-3.57649e-13
2.74683e-13
-4.66116e-12
9.25632e-13
-4.18362e-14
6.35074e-13
4.1599e-12
-9.22218e-13
3.31885e-13
-1.95694e-12
-3.66503e-12
1.31764e-12
-2.07823e-12
0
-1.92672e-12
-1.77603e-12
2.36876e-12
2.21962e-12
2.95997e-13
1.33336e-12
4.45082e-13
1.18771e-12
-1.18562e-12
-4.44367e-13
0
1.47935e-12
0
1.47916e-13
-1.47938e-13
-1.48023e-13
-5.92489e-13
-5.92785e-13
4.21939e-13
-4.6892e-13
1.3001e-13
1.73066e-12
-3.88781e-14
2.22048e-12
8.27038e-14
-1.67895e-12
-6.90278e-13
-5.91183e-13
-1.6658e-12
2.03097e-12
-8.14754e-14
-1.64276e-12
-2.47228e-12
3.1869e-14
9.50137e-14
-1.95403e-13
3.65229e-13
-4.41352e-14
-1.63048e-12
-2.45964e-12
2.95294e-15
1.29663e-13
6.40423e-13
-2.47799e-12
-1.58846e-13
1.36477e-12
-2.29386e-12
-1.29971e-13
1.81316e-12
-1.5242e-12
-2.4966e-12
1.74445e-12
2.49062e-12
3.87166e-13
-1.59374e-12
1.29269e-13
-6.37112e-14
1.20187e-13
7.71371e-14
2.66224e-12
-2.66372e-12
-8.53407e-14
-1.17123e-12
5.43187e-14
1.82909e-12
5.81559e-13
2.34931e-12
9.624e-14
1.88034e-12
-4.70456e-13
2.25442e-12
-6.63063e-15
-1.0557e-13
-1.54416e-13
-1.02812e-12
-3.77385e-13
-8.29533e-14
7.33331e-14
-2.20774e-13
-6.13606e-14
3.1999e-12
2.18802e-12
6.40286e-13
-6.01087e-13
1.267e-12
2.42103e-13
2.62843e-13
5.05221e-13
-1.63692e-12
4.87713e-15
-4.11591e-13
-1.52471e-13
-8.78676e-14
1.05121e-13
3.12879e-12
-4.5025e-14
-2.12049e-13
-3.13801e-13
-1.48188e-13
-1.48109e-13
-7.40029e-13
-2.07097e-12
1.47915e-13
1.47906e-13
-2.07091e-12
-4.43998e-13
0
-2.96396e-13
0
1.48005e-13
-2.2192e-12
1.77488e-12
-2.95791e-13
-1.47896e-13
1.62701e-12
1.92337e-12
5.92028e-13
1.48051e-13
-1.68196e-12
-2.8124e-14
-1.62185e-12
-1.38664e-13
-2.03783e-13
-2.2349e-13
1.12068e-13
2.46247e-13
-1.03457e-12
3.14069e-13
-1.70395e-12
-2.95738e-14
3.76758e-13
-3.85745e-12
-1.36116e-12
-1.71314e-12
-3.22731e-12
-2.42895e-12
8.71254e-14
-1.05533e-14
2.28608e-12
-1.70531e-12
-1.91016e-12
4.89366e-14
2.24876e-12
3.43414e-12
-5.975e-13
7.52296e-13
1.86132e-12
1.27934e-12
1.68184e-12
-1.21982e-13
-1.17265e-14
2.15019e-12
1.59527e-12
1.98368e-12
1.52311e-12
3.44471e-12
6.41357e-14
-5.1594e-13
-6.66943e-13
-5.5244e-13
5.50622e-13
1.89166e-13
-2.2798e-12
-5.38394e-12
-1.69307e-12
1.13625e-12
-2.14144e-12
-1.00229e-12
-1.90803e-13
1.21539e-13
-4.53057e-14
-9.40372e-14
2.86887e-13
-4.86988e-13
-3.3611e-13
-1.16166e-12
1.74215e-13
2.04418e-12
5.3617e-14
1.91495e-14
-5.98141e-13
-9.52382e-15
2.57085e-12
3.20168e-12
2.43955e-12
-1.88277e-13
2.0947e-12
-8.25405e-14
5.22382e-14
-2.85768e-14
-7.51572e-13
9.28943e-14
-8.03627e-13
-2.10021e-12
-3.82135e-13
-2.3411e-12
2.95911e-12
-1.65276e-12
-1.48043e-13
2.21995e-12
1.47939e-12
-2.95797e-13
-2.5141e-12
-2.3662e-12
-4.437e-13
-1.92323e-12
2.81204e-12
0
-4.14316e-12
-2.36713e-12
7.3958e-13
0
5.91557e-13
-2.07046e-12
0
5.91681e-13
1.62744e-12
2.95944e-13
-3.92548e-12
-1.78807e-12
1.99395e-13
-1.82951e-12
-1.36919e-12
-1.46971e-12
-2.0228e-13
2.84796e-12
1.8351e-13
3.89282e-13
1.39242e-12
2.36465e-12
-5.91597e-13
-5.88681e-13
-2.13942e-12
-4.08829e-13
1.84829e-14
2.52297e-13
-1.6964e-12
5.40958e-13
-6.84654e-14
2.12654e-12
-3.54495e-13
1.46638e-12
-7.4501e-13
1.74687e-12
-2.56277e-13
-4.41061e-12
1.24318e-12
1.68318e-12
1.08684e-12
2.14298e-12
-5.15926e-14
-1.81994e-14
2.34623e-12
2.87651e-12
-2.12533e-14
-2.87028e-13
1.41611e-13
1.20257e-12
2.6153e-12
1.90951e-13
2.49977e-12
2.66398e-13
1.78121e-12
-1.15659e-13
-4.25174e-13
2.14883e-12
4.82864e-13
-1.85868e-12
-3.41585e-13
-2.23035e-12
-1.74224e-13
-3.58482e-14
-2.60561e-12
-1.35434e-12
4.55652e-14
-8.02125e-13
-3.84887e-13
-1.67926e-12
2.39325e-13
-1.65627e-13
-2.05632e-12
1.13846e-13
4.92639e-13
8.6285e-14
2.28796e-13
2.2006e-13
-4.19651e-12
-2.48501e-15
-1.78021e-13
2.46167e-13
-2.05921e-13
-9.07357e-14
2.30136e-12
1.11905e-12
1.60097e-12
4.94726e-13
6.09277e-13
1.96933e-14
0
4.43819e-13
1.4791e-13
2.95779e-13
0
0
1.62682e-12
0
1.92329e-12
2.95943e-13
-1.84924e-12
-6.65729e-13
7.39659e-14
-3.69593e-13
5.91514e-13
-1.62668e-12
-5.17485e-13
-7.39032e-14
-2.2181e-13
7.37721e-14
-1.5523e-12
-1.40432e-12
7.39413e-14
-1.9967e-12
-7.39391e-13
-2.21859e-12
-2.29286e-12
-7.3885e-14
7.42186e-14
2.22501e-13
2.21045e-13
5.16808e-13
-2.95708e-13
1.48213e-13
-2.07047e-12
1.62689e-12
7.39661e-13
-1.47773e-13
-3.70194e-13