/*--------------------------------*- C++ -*----------------------------------*\
  =========                 |
  \\      /  F ield         | OpenFOAM: The Open Source CFD Toolbox
   \\    /   O peration     | Website:  https://openfoam.org
    \\  /    A nd           | Version:  10
     \\/     M anipulation  |
\*---------------------------------------------------------------------------*/
FoamFile
{
    format      ascii;
    class       volScalarField;
    location    "0.1";
    object      gradTz;
}
// * * * * * * * * * * * * * * * * * * * * * * * * * * * * * * * * * * * * * //

dimensions      [0 -1 0 1 0 0 0];

internalField   nonuniform List<scalar> 
46825
(
1.49086e-13
0
-1.48932e-13
2.82561e-12
4.45697e-13
-1.93136e-12
1.48719e-12
4.61707e-12
2.98155e-13
2.83289e-12
5.96213e-13
-1.4893e-13
1.48581e-13
-3.10848e-12
8.85874e-13
1.47648e-13
-4.44079e-13
3.26888e-12
-2.97867e-13
-7.45312e-13
-2.53138e-12
0
-5.46545e-12
-3.65837e-12
-2.90893e-13
-5.81788e-13
-1.46336e-13
-1.32946e-12
-7.42861e-13
-5.95649e-13
-4.46072e-13
0
-1.46331e-12
3.88714e-12
9.97495e-13
2.84999e-13
-4.31903e-13
-4.24358e-12
-1.48008e-13
-5.94772e-13
2.37681e-12
2.95287e-13
-2.18183e-12
-2.8502e-13
8.44125e-13
-8.44121e-13
-1.42508e-13
-4.36361e-12
1.47641e-12
-1.18838e-12
-2.37709e-12
1.4767e-13
-4.65572e-12
0
1.12565e-12
-3.51764e-12
2.28059e-12
0
1.47664e-13
2.97125e-13
-1.04116e-12
-1.48079e-13
-3.0751e-12
-3.45738e-12
1.71064e-12
-1.85318e-12
1.44053e-12
1.02501e-12
4.44217e-13
-8.92385e-13
-4.46889e-13
0
-4.43494e-13
-4.10026e-12
-1.60062e-12
-2.91023e-13
-2.92875e-13
3.25232e-12
-3.71619e-12
2.97917e-13
-2.5347e-12
-1.48984e-13
2.67566e-12
-2.96165e-13
-1.47687e-12
2.51069e-12
4.44253e-13
-3.56763e-12
0
5.96405e-13
0
2.98193e-13
1.48959e-13
7.43695e-13
-1.04007e-12
1.48584e-13
5.94981e-13
1.19174e-12
0
-2.68427e-12
2.98394e-12
-1.49346e-13
2.83738e-12
3.88013e-12
-2.98375e-13
-2.08861e-12
4.17861e-12
1.94141e-12
-1.49359e-13
1.49216e-13
-2.68769e-12
1.12218e-13
1.38979e-13
1.93807e-13
-3.34728e-13
2.19041e-13
1.44593e-14
3.91175e-12
-3.74075e-13
-7.46658e-13
-2.98577e-13
6.12231e-14
1.19188e-12
-4.15194e-12
2.95805e-13
-4.13954e-12
2.95934e-13
2.67369e-12
-4.5604e-13
-2.98595e-13
2.98387e-12
1.00129e-12
0
1.054e-11
2.90624e-13
0
-1.456e-12
0
-5.80003e-13
2.83473e-12
3.13232e-12
2.05092e-12
6.2113e-12
-8.71846e-13
2.87475e-13
-2.87087e-13
1.44174e-12
-7.03723e-12
-4.31153e-13
-4.92215e-12
-2.53594e-12
1.83073e-12
-1.18274e-12
4.35565e-12
-1.72254e-12
-3.15342e-12
2.88005e-13
0
7.48602e-13
-1.49166e-13
-8.95413e-13
-4.9743e-12
-2.3682e-12
-2.91327e-12
5.76776e-13
-2.01606e-12
-1.15682e-12
4.11153e-12
7.34021e-13
-4.47681e-13
-4.4803e-13
2.95432e-13
-1.78339e-12
-2.65344e-12
8.79877e-13
-5.2753e-12
-5.58008e-12
3.84735e-12
2.11345e-12
1.94139e-12
1.4936e-13
-1.12246e-13
6.89083e-13
1.50722e-12
5.51649e-13
-1.41343e-12
-1.2804e-12
-3.35933e-13
5.98667e-13
8.96163e-13
0
-4.48054e-13
1.49332e-13
8.9537e-13
1.49176e-13
2.68522e-12
-1.49238e-13
4.48038e-13
0
0
5.96653e-13
-2.73825e-12
8.16321e-13
-7.8731e-14
-1.71174e-13
2.03818e-12
1.88452e-12
-2.64025e-12
1.08948e-12
-2.23787e-12
-5.28449e-12
0
2.98791e-13
1.49537e-12
1.19901e-12
-1.49961e-12
-5.98768e-12
-6.27225e-12
0
-2.82036e-13
3.85131e-13
-2.98736e-13
-3.02717e-12
-3.32987e-12
1.21767e-12
3.65915e-12
-3.03527e-12
3.02548e-13
-3.00317e-13
-2.64476e-12
2.23047e-12
-4.18606e-12
3.63246e-12
1.39706e-07
1.36043e-07
1.38347e-07
1.2741e-07
-2.32921e-10
0
2.58807e-13
-9.77858e-14
-2.997e-13
-7.91366e-12
1.35991e-07
-1.94712e-08
-2.03235e-08
-1.17476e-08
-1.24609e-09
-2.1177e-12
-2.13996e-12
-2.22531e-12
5.09771e-12
6.09675e-13
1.38229e-07
-2.03023e-08
-2.1248e-08
-1.21267e-08
-1.28985e-09
5.14834e-12
2.02818e-12
-8.48211e-14
-1.49669e-12
-1.82133e-12
1.29628e-07
-1.14838e-08
-1.21117e-08
-4.2651e-09
-9.11837e-10
-1.81148e-12
1.1231e-13
2.38451e-13
1.7919e-12
-3.02761e-13
-5.00666e-10
-1.23635e-09
-1.29142e-09
-9.04114e-10
2.70207e-12
3.3073e-12
-1.45799e-12
2.34912e-12
0
6.30748e-12
1.80747e-12
-6.65494e-12
-3.02821e-12
1.50959e-12
4.20952e-12
2.99101e-13
-4.1403e-13
-4.47513e-13
-3.06663e-12
-1.16188e-13
-6.08082e-14
7.54047e-13
1.08701e-13
-3.90338e-13
1.92656e-12
1.78379e-13
3.28211e-12
-3.42259e-12
5.13788e-14
2.71131e-14
2.47812e-12
3.7077e-12
3.63418e-13
-6.11801e-13
1.21285e-13
2.80243e-12
1.48854e-13
2.79534e-12
2.97015e-13
-1.94244e-13
-2.0626e-12
-1.39086e-11
-7.40539e-12
-5.90697e-13
8.53719e-12
5.34296e-12
-2.13993e-13
-1.16167e-13
-2.57623e-12
2.16438e-11
-2.44602e-08
-2.95689e-08
-2.37123e-08
-2.96428e-08
-4.76061e-08
3.2987e-11
-2.62898e-12
-3.01192e-12
-5.89215e-12
-6.22138e-08
-225.414
-294.211
-294.847
-293.311
0.0211353
-2.53123e-10
-5.77011e-12
-2.74643e-14
-1.21317e-11
-2.86544e-08
-294.206
-407.987
-409.502
-405.669
-0.0548594
-1.49539e-09
4.04501e-12
-2.36427e-12
-1.21425e-11
-2.59884e-08
-294.824
-409.487
-411.093
-407.086
-0.0551349
-1.36116e-09
3.64245e-12
3.83608e-13
-6.79008e-12
-2.99496e-08
-292.29
-405.521
-407.075
-403.096
-0.054838
-1.76734e-09
-4.02766e-13
-2.45498e-13
-2.05972e-12
-4.74251e-08
-0.00129904
-0.0546513
-0.0551177
-0.0548252
-0.00361785
-8.1039e-10
-3.06077e-12
-2.09844e-12
2.96711e-13
2.84492e-11
-7.49672e-11
-1.4378e-09
-1.36289e-09
-1.72087e-09
-8.11211e-10
6.24594e-12
-3.98886e-12
-1.33927e-12
5.46191e-13
-2.24774e-12
2.23998e-13
2.21759e-12
-2.57808e-12
6.69173e-13
1.83931e-12
-1.85393e-13
1.78601e-12
0
4.28675e-13
2.07106e-12
1.83532e-13
-1.11983e-13
-2.55237e-12
-2.04686e-12
1.70922e-13
-1.12841e-12
2.97342e-13
7.72875e-12
2.96347e-13
5.94384e-12
2.69657e-11
4.63883e-11
4.17788e-11
4.48838e-11
-1.63177e-12
-5.63001e-12
6.04294e-14
-1.76447e-14
2.0888e-12
4.40152e-10
-0.000218827
0.00282764
0.00286191
0.00278642
-4.51395e-05
1.08775e-10
2.96945e-12
-2.6583e-12
-5.79482e-12
0.00139857
-7.43786e-09
-2.87716e-12
2.5538e-13
4.92774e-11
0.00282908
1.73183e-07
5.74639e-12
2.22979e-12
3.68417e-11
0.00285226
1.74619e-07
6.94144e-13
-1.99106e-12
4.80576e-11
0.00278606
1.64961e-07
-2.64931e-12
-2.38208e-14
2.70288e-13
-4.22386e-05
-1.08682e-08
-1.50578e-12
-4.27063e-12
-5.92316e-13
1.19088e-10
-2.61235e-08
1.7342e-07
1.76938e-07
1.6456e-07
-1.08206e-08
-6.55521e-12
2.5317e-13
4.4586e-13
4.81636e-12
-3.3403e-12
-3.92996e-13
6.11223e-13
8.41745e-13
1.77015e-13
-5.10144e-12
-2.21018e-12
2.0811e-12
-2.37864e-12
-2.55971e-12
6.63181e-13
-3.33547e-12
-3.30169e-12
-2.57306e-13
-6.15642e-12
-2.64599e-13
-5.07285e-12
0
4.00599e-12
-2.97272e-13
-5.42252e-12
-3.50323e-12
1.13768e-11
1.02182e-11
1.51511e-11
-1.11362e-12
5.06085e-12
-6.03794e-14
-1.8874e-12
-4.20848e-13
-2.86527e-10
6.65978e-05
9.03047e-05
9.05587e-05
9.0072e-05
-2.62623e-06
1.55119e-11
1.58446e-12
2.85247e-12
1.751e-12
4.10365e-05
-2.16036e-09
2.7367e-12
-1.62785e-14
1.02085e-11
9.03401e-05
2.50396e-08
5.02454e-14
2.99744e-12
1.48873e-11
9.05581e-05
2.31653e-08
-3.67406e-12
-1.07656e-12
1.25277e-11
9.00536e-05
1.91025e-08
4.14198e-13
-4.4928e-13
8.12197e-12
-1.29021e-06
-6.81041e-10
2.34265e-12
2.04827e-12
-2.97733e-13
1.68547e-11
4.0732e-10
2.1965e-08
2.31746e-08
1.91011e-08
-8.30241e-10
-4.80655e-12
3.1651e-12
8.92018e-13
-5.91137e-13
5.83112e-12
-6.96754e-14
-5.34518e-12
-8.17427e-13
-2.03749e-13
-2.83551e-14
-7.16161e-14
-1.93306e-12
2.97499e-13
6.30591e-12
-3.03899e-12
-2.86792e-13
4.03063e-13
-1.8487e-13
-6.91639e-13
-3.02328e-12
2.73868e-12
-1.48796e-13
-2.61658e-12
5.06227e-12
-1.10722e-13
-1.17072e-12
2.92568e-12
1.4641e-12
3.21401e-12
1.16752e-12
-3.87859e-12
3.70087e-13
-3.46527e-12
-7.40991e-14
-4.66221e-10
1.62535e-05
3.02483e-05
2.02191e-05
3.01511e-05
-8.97878e-07
7.37849e-12
4.20766e-13
1.20971e-12
-8.48539e-12
1.60438e-05
-5.2239e-10
3.2043e-12
-2.53133e-12
2.63275e-12
3.02513e-05
4.03536e-09
-3.30182e-12
1.08585e-13
5.85569e-13
3.03209e-05
2.92786e-09
-2.96195e-12
2.9066e-12
3.79805e-12
3.01417e-05
-1.07028e-09
2.20702e-12
1.76843e-13
-1.48267e-12
-4.31591e-07
2.11022e-10
1.73338e-12
4.3028e-12
5.96655e-13
1.02782e-13
-3.50033e-11
2.51627e-09
3.25446e-09
2.596e-09
-1.4522e-10
5.11927e-12
-4.1237e-13
1.48761e-13
-4.52115e-12
6.45757e-13
9.3667e-14
-4.5209e-12
-4.19017e-13
-5.5179e-13
2.76697e-12
2.68264e-12
-2.52941e-12
5.50649e-12
2.79484e-12
-3.77504e-12
3.17438e-12
2.6409e-12
2.78694e-13
6.66017e-12
6.58135e-13
2.10338e-12
-5.95465e-13
-3.32077e-12
-9.23773e-12
1.63326e-12
0
1.75651e-12
0
0
-4.34688e-13
-1.49282e-12
-7.95514e-13
-2.28413e-12
-2.63478e-13
1.22445e-10
7.99632e-06
3.02632e-05
1.01283e-05
2.01166e-05
-8.93266e-07
5.53187e-14
4.10207e-13
-4.53309e-13
1.46396e-12
1.82536e-07
-2.65125e-10
-3.4046e-13
-7.63367e-14
8.78157e-13
3.02603e-05
-1.04381e-09
-6.13783e-14
1.88008e-12
3.51568e-12
1.01291e-05
-1.15139e-09
-2.93407e-12
5.81769e-13
5.84681e-13
3.0155e-05
-2.24552e-08
-3.85282e-12
1.09627e-13
-6.34542e-12
5.6917e-09
2.36601e-09
-1.0473e-12
5.16109e-14
-5.97294e-13
3.55541e-12
-3.17448e-10
3.92589e-10
-8.30387e-10
-3.28541e-10
-4.82197e-11
0
1.80287e-13
2.97672e-13
2.59503e-14
-7.99322e-13
-2.07021e-13
3.25024e-12
4.27922e-13
-4.29004e-13
-2.23935e-12
2.46665e-12
-1.48862e-13
-4.46642e-13
-3.76098e-12
3.67112e-14
7.75581e-14
2.20091e-12
-1.18431e-13
3.88617e-13
3.26143e-12
-2.74716e-12
1.48922e-13
-4.38883e-13
4.17294e-12
-1.73782e-12
8.78593e-13
-5.56252e-12
-3.51627e-12
-3.8011e-12
-2.6077e-13
2.09035e-12
2.4828e-13
3.34107e-12
-5.30159e-12
6.33611e-11
-1.64855e-05
-9.96177e-06
-2.00847e-05
1.00341e-07
-9.27655e-07
-8.78058e-12
-8.54514e-13
1.67213e-12
7.02681e-12
-1.68151e-05
-6.28208e-10
-7.56683e-14
2.88655e-12
-5.26897e-12
-9.96107e-06
-2.15088e-08
-5.51693e-13
-2.51569e-13
-1.08402e-11
-9.9886e-06
-2.20178e-08
8.23685e-13
-3.48412e-12
-4.97005e-12
-9.93339e-06
-1.37684e-09
-5.99397e-14
1.40123e-13
3.38312e-13
4.19548e-07
-5.5297e-09
-6.28179e-14
-5.65177e-14
-4.48002e-12
-1.38512e-11
-5.99688e-10
-2.20381e-08
-2.19727e-08
-1.86131e-08
5.34143e-10
-2.99399e-13
-6.52502e-13
-1.48893e-13
2.24558e-12
1.86693e-12
-3.43882e-12
3.14576e-12
1.5442e-12
8.18146e-13
-3.37732e-12
-5.57595e-13
1.48915e-13
-7.44609e-13
-3.86635e-12
-7.25724e-14
-2.79561e-12
-2.4863e-12
3.44467e-14
5.4738e-13
-5.37528e-13
-2.83409e-13
5.95841e-13
2.8321e-12
3.27886e-12
-1.24066e-12
1.31958e-11
2.17184e-11
2.58503e-11
1.37742e-11
0
-1.4929e-12
1.07808e-12
2.58146e-12
4.6309e-12
3.93282e-11
-0.000935095
-0.00214844
-0.00218187
-0.0021351
2.10581e-05
-1.58857e-11
3.80206e-13
-1.62272e-12
7.91567e-12
-0.000951014
7.50014e-08
2.56923e-12
-8.46224e-14
2.14226e-11
-0.00214841
1.65406e-07
-1.90214e-13
-2.29237e-12
2.99596e-11
-0.00218182
1.65104e-07
2.52641e-12
-2.36496e-12
1.31866e-11
-0.00211485
1.42014e-07
3.72213e-12
3.85797e-13
-4.93743e-13
2.23598e-05
5.37291e-09
2.34674e-13
-2.8602e-14
5.37584e-12
-1.5503e-11
7.5436e-08
1.65068e-07
1.66638e-07
1.4092e-07
5.61496e-09
-3.01161e-13
9.20532e-13
0
2.60776e-13
-2.93733e-12
5.62869e-13
3.39306e-13
-2.28389e-12
-1.77072e-13
-5.64857e-13
-2.52959e-12
7.44784e-13
-2.97885e-13
6.42017e-13
-2.85292e-14
-4.41279e-13
1.17924e-12
2.56562e-12
2.84167e-13
2.51152e-12
-2.69012e-12
-1.63864e-12
-7.88919e-13
-8.94264e-12
-1.66579e-13
4.40278e-12
-5.00174e-12
3.82831e-12
-4.99355e-12
-3.80535e-13
1.19438e-12
-5.34268e-13
-2.41673e-13
-6.16552e-12
1.10092e-11
2.19881e-07
9.20968e-08
9.41445e-08
9.71596e-08
1.7491e-07
2.29028e-12
4.70749e-13
-2.53059e-12
-5.57621e-12
2.11634e-07
-1.50688e-10
-2.54828e-12
2.65138e-12
0
9.21568e-08
-1.9229e-10
1.84973e-13
4.0528e-13
2.94467e-13
9.58965e-08
-1.75241e-10
-7.13203e-13
2.69411e-12
0
1.00651e-07
-2.3166e-10
-2.59779e-12
3.49799e-12
-1.169e-13
1.81209e-07
2.92949e-10
-2.24195e-12
2.13211e-13
-1.19412e-12
-6.43966e-13
-1.52589e-10
-2.01566e-10
-1.88242e-10
-2.32094e-10
2.86828e-10
4.81784e-12
1.65746e-13
2.97907e-13
9.90606e-13
2.03678e-13
3.07043e-12
7.94407e-13
-1.67839e-12
-1.07001e-12
3.5878e-12
-3.23494e-12
1.48964e-13
-2.3831e-12
-1.97884e-12
1.911e-13
-8.05181e-14
-2.54659e-12
2.23039e-12
-3.88431e-12
3.35727e-13
1.22851e-14
0
-3.27851e-12
5.66462e-12
1.44116e-12
-8.78243e-12
4.98034e-12
-5.27754e-12
5.26623e-12
2.64934e-13
-7.46598e-12
-6.8688e-14
-3.96239e-14
6.44581e-12
-1.22397e-12
-5.79988e-13
1.17621e-12
-8.24601e-12
8.8082e-12
-2.71842e-13
3.76674e-13
-6.87851e-14
-5.80723e-13
4.97651e-12
-1.10211e-11
1.55067e-12
-2.5117e-12
-1.9044e-13
0
-8.82112e-12
-4.11388e-13
-5.05274e-13
-1.38156e-13
5.86377e-13
-1.23689e-11
-9.50269e-14
1.45675e-13
2.10724e-12
5.5587e-12
2.34885e-12
1.4158e-12
2.89907e-12
-4.40316e-13
5.54517e-14
7.49775e-13
-4.67182e-12
-3.5589e-12
2.49907e-12
8.95918e-13
-2.86273e-12
9.95121e-13
6.53024e-12
7.32988e-12
5.7521e-12
5.27948e-12
-4.51932e-12
-1.43374e-12
2.08523e-12
8.25832e-14
-2.39841e-12
2.55742e-13
2.43704e-12
4.68966e-12
6.22067e-14
1.777e-12
2.65616e-13
-1.04268e-12
-5.95738e-13
-7.49648e-14
-2.04289e-14
-4.38935e-13
-5.8987e-12
-2.65803e-12
7.82713e-13
-6.35423e-13
5.92082e-12
1.19154e-12
7.92347e-13
4.7707e-12
-2.45384e-13
-1.75613e-12
2.9284e-13
8.79252e-13
-2.92454e-13
-1.51929e-13
5.675e-12
3.5343e-12
2.26718e-13
1.64931e-13
-1.83671e-11
6.54592e-13
-1.8186e-12
1.18163e-12
-1.17761e-12
1.41473e-12
8.64233e-12
1.09573e-13
-4.41149e-14
-1.17076e-12
2.46582e-11
-5.44973e-12
4.8324e-12
-6.15753e-12
2.92826e-13
-6.78715e-12
-2.89047e-13
2.2681e-13
-5.66713e-14
-2.93069e-13
-1.77244e-12
5.73329e-12
3.2745e-14
1.97054e-13
-5.55649e-12
-1.1776e-12
1.29864e-12
5.08269e-12
-3.92218e-12
-3.15712e-13
-2.01086e-12
5.60995e-12
2.18612e-12
2.85268e-12
2.09071e-12
-3.47057e-12
-1.33058e-12
3.0163e-13
-2.07454e-13
-1.04717e-11
-4.60918e-12
-3.01411e-13
-2.34658e-13
0
-9.08827e-13
2.45554e-13
3.83381e-13
-8.96928e-13
-5.65539e-13
-2.49851e-12
3.23401e-12
5.37491e-12
5.95761e-13
-2.53177e-12
5.14777e-12
3.86963e-13
6.46494e-13
5.56383e-12
-2.23644e-12
1.94352e-12
4.68958e-13
-1.10066e-13
3.2765e-12
2.71297e-13
-4.77062e-12
-2.9957e-13
5.85448e-12
-4.68629e-12
5.86273e-13
-2.92488e-13
7.9387e-13
1.19482e-12
-5.17111e-13
-3.5726e-12
-6.46023e-13
6.12329e-13
-4.45416e-13
-1.14265e-13
0
-1.17784e-12
1.12524e-13
-4.24314e-12
-2.5442e-13
2.7224e-12
5.85425e-13
2.15574e-12
9.56532e-12
-1.93869e-13
7.37988e-14
5.85745e-13
-1.33571e-12
8.58627e-14
-4.20488e-14
3.57393e-12
-5.86243e-13
5.9099e-13
-5.87953e-12
-1.09499e-13
3.14381e-13
0
1.47229e-11
-1.4551e-12
-2.93864e-12
2.77282e-13
-3.66987e-13
2.94472e-13
-5.26501e-12
5.93885e-12
-4.9771e-12
-2.38955e-12
-1.61135e-12
2.83308e-13
2.90861e-13
4.78283e-13
4.70447e-12
3.86954e-12
0
-1.34361e-12
-2.97857e-12
-8.88924e-14
2.60927e-12
-3.17374e-12
-2.42542e-12
1.21772e-12
1.6898e-13
-1.1242e-12
-5.63282e-14
0
1.48933e-13
-2.74444e-13
-6.31573e-14
4.30467e-13
2.08699e-12
-9.35988e-14
-2.6172e-12
-2.49409e-12
-3.02636e-12
2.38301e-12
2.50511e-12
5.96263e-13
5.31844e-13
-5.85387e-13
4.97834e-12
-5.8617e-13
8.77348e-13
2.45633e-13
-5.97326e-12
-5.6364e-12
-2.58197e-12
6.26807e-12
1.83689e-12
-3.96062e-13
-9.55238e-12
1.06373e-11
-5.88888e-13
1.13429e-11
-5.07734e-12
1.33908e-13
-1.89954e-13
-5.56106e-12
2.38139e-12
3.31437e-13
-1.86915e-12
2.48771e-12
-6.44242e-12
-1.3134e-11
-8.36271e-13
3.14086e-13
7.58075e-14
2.93075e-13
-5.90961e-13
1.855e-13
-3.91453e-13
2.87897e-12
5.84888e-13
-1.35444e-11
-2.89918e-13
-2.27855e-12
1.87221e-13
6.55802e-12
1.01998e-11
-7.10376e-12
-1.62e-13
-3.08471e-13
4.18116e-12
-6.51642e-12
-6.47492e-12
1.20039e-13
-7.12465e-13
6.71215e-12
-4.04929e-12
0
-4.05024e-13
7.44655e-13
4.39336e-12
9.12924e-13
-1.45548e-13
-2.83418e-12
-1.4737e-13
3.27786e-12
-2.52034e-12
1.15785e-12
-5.95741e-13
2.53199e-12
6.51537e-13
5.80618e-13
-3.04753e-12
-3.25853e-12
2.76349e-13
-2.15688e-12
-2.69955e-13
2.81341e-13
-2.97899e-12
2.20017e-14
-8.94246e-13
1.61898e-13
4.97504e-12
1.757e-12
6.74066e-12
2.92441e-13
1.93081e-13
5.07579e-12
8.14739e-15
3.31685e-12
-5.68979e-12
7.34539e-12
-8.98606e-12
5.54019e-13
0
5.88424e-13
3.58572e-12
4.33712e-12
-2.53475e-13
-2.33511e-12
5.85286e-12
1.41756e-11
-3.32873e-12
-1.15905e-13
9.53133e-14
4.39232e-12
4.52185e-13
-6.16129e-13
3.08283e-14
-3.67069e-12
2.93069e-13
1.535e-11
1.18154e-12
-1.99117e-13
2.3965e-13
-5.84861e-13
-2.94186e-12
-7.5138e-13
-3.63656e-14
-4.35344e-13
-6.81338e-12
-2.2866e-12
1.4073e-11
-2.11605e-12
2.56021e-12
-2.98571e-13
7.26217e-12
6.86254e-12
-6.04645e-13
3.76185e-13
-3.64849e-12
6.804e-12
6.02478e-13
-3.85513e-13
2.97895e-13
-1.82247e-13
-2.10311e-13
2.94456e-12
-1.69976e-13
-3.31551e-12
3.78663e-12
2.55126e-12
8.10036e-14
-7.44742e-13
-1.48961e-13
-1.32544e-13
-6.35684e-14
-1.18979e-12
-5.64498e-14
-1.14952e-13
2.24971e-12
8.3909e-15
-5.39271e-13
-2.83071e-12
-4.43035e-13
2.98052e-13
5.42305e-12
-4.39866e-12
-7.05267e-12
-6.1764e-12
1.17351e-12
-8.82634e-13
7.16352e-12
4.80896e-12
5.62533e-13
-5.8035e-13
2.43961e-12
-5.80618e-13
6.49929e-12
1.59745e-11
8.8518e-12
-3.02219e-12
-3.58381e-12
2.70217e-13
2.91802e-14
0
1.33553e-11
-1.74255e-12
-2.25041e-12
9.28163e-14
1.46926e-12
0
-4.79784e-12
2.69162e-13
-3.06683e-13
-3.82343e-12
5.91658e-13
-5.29137e-12
5.23663e-13
-2.5326e-12
-1.17358e-12
5.31125e-12
-3.77495e-12
-2.42205e-12
-3.2992e-13
2.94237e-13
-1.44542e-12
-7.87437e-12
-2.42897e-13
-2.41392e-12
-3.28334e-12
-1.83928e-12
2.47197e-14
-3.84604e-13
2.09943e-13
-3.61787e-12
-8.47837e-12
-6.01805e-13
2.93459e-13
-2.97959e-13
-8.76126e-12
-1.01518e-12
1.28403e-13
3.64167e-12
4.10818e-13
7.00412e-13
-2.51139e-13
-7.34347e-12
1.48985e-13
1.48966e-13
1.93659e-13
-3.99664e-13
3.34902e-12
-1.57364e-13
5.36266e-13
1.57618e-13
2.6145e-14
1.12092e-13
2.98006e-13
8.41173e-15
5.96355e-13
-5.7146e-12
0
5.29049e-12
5.88349e-13
-6.16288e-12
-6.26662e-12
-5.67597e-12
-3.32049e-12
2.914e-14
4.33262e-12
6.13733e-13
5.01971e-12
1.04735e-12
7.8773e-13
-3.25504e-14
-9.84382e-12
2.48794e-12
-2.74604e-12
-2.8235e-13
-2.93414e-13
1.09347e-12
-7.29227e-14
-2.9468e-12
-9.873e-13
0
-1.00361e-11
9.34559e-12
2.9286e-14
-3.31851e-13
4.4123e-12
1.09376e-11
4.41958e-12
-2.51314e-12
-6.30513e-14
8.8039e-13
1.03929e-12
4.32734e-12
-1.67057e-12
-1.28199e-14
6.18446e-12
-5.60524e-15
-8.86545e-15
5.67477e-13
-2.81213e-12
-5.97488e-13
2.48842e-12
-6.02901e-13
4.49143e-13
-2.68797e-13
3.79507e-12
3.06983e-12
3.01422e-13
4.35785e-12
2.98001e-12
2.55875e-12
-2.46003e-14
3.53315e-12
1.6062e-13
-2.43737e-12
-4.31586e-12
-5.27401e-12
-1.1039e-13
3.72502e-12
5.95812e-13
-1.07015e-13
2.73618e-12
8.25639e-13
2.97805e-13
2.18015e-13
-4.78186e-13
-4.8806e-14
-2.92705e-13
1.48993e-13
-2.63274e-12
5.36711e-12
-5.29354e-12
7.61622e-12
0
0
1.11147e-11
7.12824e-12
-5.07818e-12
-2.25152e-12
4.3889e-12
-5.13436e-12
3.06805e-12
1.06554e-11
-5.88765e-13
1.17952e-12
-5.87928e-13
-8.98682e-12
1.27805e-11
-1.54193e-12
1.3452e-13
2.92828e-13
5.28122e-12
-1.18802e-14
5.62919e-12
2.27237e-13
-4.39212e-12
5.88753e-13
-4.25266e-12
3.93809e-13
3.03533e-13
-5.86148e-13
2.35902e-12
-3.46176e-13
-5.55017e-13
2.03474e-13
-2.9247e-13
7.05511e-12
-6.39874e-13
1.58439e-13
2.33349e-13
-6.42555e-12
6.8673e-12
7.70423e-12
9.6095e-14
1.4155e-13
-8.96187e-13
-7.54682e-14
-4.11102e-12
8.22581e-12
-2.00674e-14
-3.91772e-12
-1.23615e-13
-1.20555e-12
5.84623e-13
-2.97991e-13
4.3483e-12
2.4257e-12
-3.94336e-12
1.03268e-13
-2.05321e-12
-4.37957e-13
-3.57134e-12
6.30144e-13
1.49e-13
0
-7.48923e-13
5.72348e-15
-3.90309e-12
2.29437e-12
-3.57567e-12
-5.47652e-12
-4.5026e-13
-5.08594e-13
2.68207e-12
-2.94692e-13
-5.66521e-12
6.27309e-12
-6.73774e-12
0
0
-5.26448e-12
-2.9424e-13
4.48105e-12
6.12133e-12
-2.82963e-13
1.12453e-12
3.68293e-12
1.14958e-12
-1.35644e-11
-9.45447e-12
-1.17769e-11
4.64189e-12
9.69981e-12
-2.61493e-14
2.52463e-12
2.92839e-13
7.9362e-12
-5.45665e-13
2.69106e-12
-5.54776e-14
4.09902e-12
-1.22876e-12
5.77142e-12
-1.29733e-13
1.12793e-13
-4.9822e-12
5.90897e-13
-6.78582e-12
2.85236e-12
3.38902e-13
8.77351e-13
2.35537e-12
-1.43463e-13
1.98288e-12
-2.8067e-13
2.8474e-13
1.75534e-13
-1.47252e-11
-3.56987e-12
-1.72671e-12
2.98727e-13
1.09674e-12
3.86651e-12
-7.51436e-12
2.22182e-15
-4.89974e-12
-1.38071e-12
1.50722e-12
-2.51423e-12
-3.12911e-12
-3.08567e-12
2.95233e-13
-3.08596e-12
-6.38759e-13
2.26193e-12
-1.55776e-13
2.57396e-12
6.46565e-13
-3.2782e-12
0
6.7689e-13
-2.87955e-12
-2.96687e-12
-2.36018e-12
6.27204e-14
1.0666e-12
-2.47509e-12
-5.46873e-12
-3.27926e-12
5.97856e-13
-5.66587e-12
2.40934e-13
0
1.46432e-12
2.93116e-13
0
-8.82704e-13
-1.19502e-12
-4.44201e-13
-5.44542e-12
-4.4303e-13
0
-1.07073e-11
9.4373e-12
-5.31836e-12
-2.94441e-12
1.86993e-12
-8.64919e-12
1.61988e-12
1.99434e-12
-2.92861e-13
7.05895e-13
1.81742e-12
-6.03836e-12
3.06306e-12
8.78473e-13
-3.78492e-12
-5.55196e-12
-3.36589e-13
2.55901e-12
1.11379e-11
-8.86411e-12
7.26666e-12
6.81686e-13
-1.85256e-13
-2.04731e-12
5.88888e-13
6.98479e-12
2.50433e-12
-2.21207e-12
-6.63566e-13
-9.05842e-13
6.97526e-12
3.9775e-13
3.41063e-13
9.56029e-12
4.10824e-12
3.92906e-13
-2.68291e-14
-7.73453e-14
5.03468e-12
-1.8831e-13
6.93335e-12
-1.20221e-13
-2.98113e-12
2.87283e-12
-2.11701e-12
7.00603e-12
9.60445e-15
-4.77818e-13
2.19908e-12
3.65906e-12
1.12253e-12
-1.93783e-12
5.96492e-13
8.83419e-13
7.39531e-13
3.27055e-12
-2.13205e-12
2.94475e-12
5.14656e-12
3.41906e-12
2.94281e-12
-3.13239e-12
9.25554e-13
5.96583e-12
5.67885e-12
7.32247e-12
-2.04983e-12
2.93091e-13
-5.26434e-12
-2.94245e-13
1.19514e-12
-4.87959e-12
-4.35113e-12
5.28529e-12
1.84059e-12
-1.33333e-12
0
0
2.35486e-11
-1.30048e-12
-6.51249e-13
2.81784e-12
-2.20659e-12
6.44248e-12
-1.53861e-11
5.95644e-14
2.24534e-13
-1.56037e-12
5.85608e-12
1.06337e-11
-3.42979e-13
2.05407e-13
-2.9525e-13
-1.17228e-12
-3.54406e-12
-1.76393e-13
-2.023e-13
-3.02695e-12
8.77407e-13
0
-6.63589e-12
2.47614e-13
-3.23046e-12
1.30659e-12
-1.09165e-11
-7.3074e-12
2.7808e-12
1.61559e-12
-8.96361e-12
-1.03238e-11
-4.66128e-12
2.69531e-13
5.53921e-12
6.11357e-12
-5.07196e-13
-7.83612e-12
4.32652e-13
2.98322e-13
3.10092e-13
4.3243e-16
5.83091e-13
6.62367e-13
2.69992e-13
4.10643e-13
-3.17621e-12
-3.9379e-12
1.49172e-13
1.49254e-13
-5.77529e-13
1.46403e-12
2.93546e-12
2.12593e-12
-2.18987e-13
-5.29842e-13
2.85741e-12
5.66478e-12
2.98557e-12
-2.88137e-12
-7.76231e-12
-5.407e-12
-1.17391e-11
0
-1.46919e-12
5.27829e-12
-4.12466e-12
-5.9788e-12
4.28916e-13
3.34407e-12
-5.2984e-12
-1.22414e-12
7.67324e-13
8.22475e-12
5.88417e-13
9.97341e-12
1.26594e-11
-9.03476e-13
3.13437e-13
-2.3751e-12
-5.86838e-12
9.77955e-12
-7.16798e-12
2.37544e-12
-2.23596e-12
-5.87694e-12
-9.98098e-12
6.06947e-12
-1.38931e-13
-2.47734e-12
-5.58774e-12
1.17596e-12
-1.17633e-12
-1.26362e-13
1.02055e-13
5.28162e-12
-5.27656e-12
4.6061e-13
-3.05653e-13
-8.07112e-13
-8.42432e-13
-2.1321e-14
7.58879e-12
4.93582e-14
5.12949e-14
-2.98937e-13
6.78224e-12
-3.30963e-12
-2.6252e-14
-5.94684e-12
-6.66146e-12
1.71116e-12
3.01277e-13
2.28663e-12
5.97113e-13
-7.20195e-12
2.21684e-13
-3.31804e-12
-4.31079e-13
2.34696e-12
-2.38268e-12
2.45864e-12
2.43509e-12
2.09024e-12
-2.98424e-12
-7.96588e-13
-1.6745e-13
8.34141e-13
6.88368e-14
7.02807e-14
3.21361e-14
2.79547e-12
-2.05008e-12
5.9689e-13
-7.88969e-13
-8.95995e-13
3.71335e-13
4.45348e-12
-2.97701e-13
1.78729e-12
-2.67584e-12
4.15756e-12
5.08441e-12
2.18225e-12
4.32001e-12
-4.54221e-12
3.05894e-12
2.19964e-11
1.0627e-11
-7.58354e-12
1.23504e-11
8.70007e-13
4.17799e-13
-4.04337e-13
2.28942e-12
4.17867e-13
-1.0774e-12
6.45038e-12
5.92544e-13
4.3839e-12
2.40385e-13
-9.12307e-12
-3.30742e-12
2.5481e-13
-2.55186e-13
5.41548e-13
1.28135e-11
6.0198e-13
4.02933e-13
2.71199e-12
-4.33244e-12
1.38818e-12
-8.99775e-13
2.19335e-13
3.29037e-12
3.662e-13
-1.53196e-11
7.42433e-14
-3.32809e-13
6.54659e-12
0
9.50904e-13
7.75388e-12
-9.0208e-13
1.80602e-12
5.99848e-13
-1.248e-11
1.8092e-12
-1.39436e-13
-1.49222e-13
-1.9653e-13
-1.88544e-13
-3.35789e-13
2.28195e-12
2.97326e-13
2.86779e-12
2.8535e-12
3.22916e-12
-7.46291e-13
-7.44387e-13
8.14267e-15
-1.38286e-12
1.70132e-13
-1.79588e-13
-3.4647e-13
3.27531e-12
2.11715e-12
2.66619e-12
4.46635e-13
2.92652e-12
7.44049e-12
0
-6.73994e-13
-7.43078e-14
-2.96748e-13
3.26153e-12
-2.96435e-13
-2.97476e-13
-2.49001e-12
3.62011e-13
4.06889e-12
3.63543e-12
-2.72086e-12
1.26645e-12
1.2845e-12
5.67389e-12
-5.60832e-12
-4.05159e-13
-2.11045e-13
1.92377e-13
-5.26935e-12
5.89404e-13
2.53288e-12
-1.00768e-12
-4.13399e-12
-6.93803e-12
-1.71414e-12
5.32355e-12
-1.01075e-13
-4.86989e-13
4.51674e-13
-5.91464e-13
-1.86209e-12
-1.97804e-12
2.27871e-12
-1.59316e-12
-2.32363e-12
-2.9659e-12
1.85736e-13
1.0482e-13
4.16689e-13
1.1833e-11
-4.58756e-12
2.96235e-12
-7.58036e-13
1.43973e-12
-1.62662e-11
0
-2.58659e-12
2.7251e-12
1.06666e-12
1.47838e-11
-7.41841e-12
-5.46214e-12
-9.62344e-12
-3.78197e-13
5.80745e-13
-3.55593e-12
-3.5493e-13
3.11902e-12
-2.96401e-13
6.4936e-12
-9.71458e-12
-1.33608e-11
5.80931e-13
1.04531e-11
1.70486e-12
5.62126e-12
-2.25733e-12
1.55269e-13
-4.4618e-12
4.74959e-12
-5.91435e-13
-4.74545e-12
5.34134e-12
-8.88941e-13
1.1242e-11
-1.78649e-12
-1.96419e-12
2.0842e-12
5.08437e-12
-1.50895e-14
-1.18416e-14
2.98516e-12
2.07926e-13
-4.16428e-13
-2.52881e-12
-4.28192e-14
-2.97813e-13
1.78159e-12
5.93528e-13
-1.18548e-12
1.4803e-13
1.47989e-13
2.66377e-12
-1.48024e-13
-7.70532e-12
-2.96755e-13
-5.93863e-13
-2.37372e-12
3.18366e-12
9.23247e-13
4.96883e-13
-4.23667e-14
-3.82962e-13
-3.30876e-12
1.02424e-14
1.81039e-12
4.45139e-13
-2.37024e-12
2.17017e-12
6.48251e-12
0
-4.37496e-14
6.90551e-14
-6.16529e-13
8.81762e-13
5.90932e-12
2.11293e-12
-2.95967e-12
7.82559e-12
-3.30392e-13
-9.82497e-13
2.95347e-13
-9.43804e-13
4.1649e-12
1.39147e-12
1.40065e-12
-2.9601e-13
-2.3672e-12
2.85167e-12
1.31458e-12
1.9519e-14
-1.75906e-12
-2.28708e-14
1.90559e-12
-3.82715e-12
5.12747e-13
-2.66353e-12
5.91831e-13
-1.33231e-12
5.30033e-12
3.06777e-12
1.71281e-12
1.04818e-12
1.42768e-12
5.31008e-12
-2.19935e-12
-8.87888e-13
3.40404e-12
1.36446e-12
4.64352e-13
3.49402e-12
2.1212e-13
2.66731e-13
7.95543e-13
-2.64762e-12
-1.69277e-12
1.48027e-13
7.40812e-13
1.44319e-12
-5.58509e-12
-1.42063e-12
2.94384e-13
1.77e-12
-6.47169e-12
1.75955e-12
-7.29511e-13
-2.07465e-12
-4.15444e-12
5.18412e-13
-6.20435e-12
-1.38185e-12
1.91605e-12
-2.96957e-12
2.38053e-12
6.22845e-13
4.44282e-13
-1.48395e-13
-2.07843e-12
-3.41257e-12
7.08514e-14
-1.47993e-13
-2.51533e-12
-5.91861e-13
-2.66407e-12
0
-1.48379e-13
7.42413e-13
8.89222e-13
-1.4813e-13
-1.4802e-13
-2.81088e-12
2.21879e-12
0
-2.81088e-12
-2.6643e-12
-1.48126e-13
-1.48201e-13
3.85109e-12
8.87896e-13
-7.39135e-13
2.36416e-12
3.84249e-12
-7.38931e-13
3.54612e-12
2.95634e-13
-2.51574e-12
3.9992e-12
5.92003e-13
-2.9564e-13
-2.95107e-12
-2.21332e-13
-4.43077e-13
2.95378e-13
5.16401e-13
4.795e-13
3.32476e-13
2.51622e-12
0
2.21629e-12
7.37761e-14
-9.97397e-13
-1.22148e-12
-1.11035e-12
-2.58465e-13
-1.10618e-12
-1.47713e-13
1.4792e-13
0
-1.92119e-12
1.10767e-12
0
3.70852e-12
-2.07679e-12
0
-3.31951e-13
-1.32957e-12
-2.21835e-12
-1.03534e-12
-2.9557e-13
-2.99067e-12
1.99867e-12
-4.89536e-12
-2.81889e-12
1.47877e-13
-1.95456e-12
2.36355e-12
2.21837e-12
0
-2.9551e-12
-9.59017e-13
9.23086e-13
3.40077e-12
1.47876e-13
2.21325e-12
9.9497e-13
7.38519e-13
2.95839e-13
1.48007e-13
-2.21721e-12
-7.00789e-13
8.84909e-13
1.10646e-13
-1.84386e-13
3.31646e-13
1.14294e-12
-1.47794e-13
2.07207e-12
-1.48121e-13
-2.95963e-13
1.40371e-12
-2.95412e-13
-2.51126e-12
7.38577e-13
-2.95391e-13
-2.5124e-12
0
1.4812e-13
1.92655e-12
2.07364e-12
-2.81213e-12
-4.43738e-13
-1.6267e-12
3.25331e-12
2.66225e-12
2.95982e-13
0
4.44599e-13
-1.48056e-13
2.96026e-13
2.95912e-12
-4.43746e-13
0
-4.437e-12
8.8746e-13
5.62203e-12
0
2.96103e-13
2.07209e-12
-3.10689e-12
-5.91523e-13
-1.47845e-13
1.47847e-13
4.4353e-13
1.47835e-12
2.95733e-13
0
2.96007e-13
5.47398e-12
-2.95743e-13
3.10394e-12
-7.39012e-13
-1.4784e-13
-5.91341e-13
0
-5.61589e-12
-3.25298e-12
-2.21913e-12
2.95809e-13
-3.8438e-12
2.95598e-12
1.47854e-13
3.25467e-12
1.47929e-13
-4.43464e-13
-2.80749e-12
2.9563e-13
-2.95784e-13
0
-5.91364e-13
-3.69594e-12
-1.47938e-13
5.92257e-13
2.66498e-12
4.43688e-13
-2.95568e-12
-2.80831e-12
-4.43614e-13
-2.21833e-12
2.80891e-12
-2.36532e-12
-1.47928e-13
-5.92215e-13
1.4805e-13
-1.47891e-13
1.18222e-12
1.478e-13
5.91472e-13
-5.91609e-13
-2.9566e-13
-2.80787e-12
-2.51291e-12
7.39467e-13
4.43668e-13
-2.95562e-13
2.36376e-12
-3.25156e-12
-4.43652e-13
-7.39719e-13
-4.43584e-13
-3.69458e-12
-5.02383e-12
-2.9556e-13
2.21657e-12
-1.4773e-13
-4.43256e-13
-8.8704e-13
1.92311e-12
2.66406e-12
0
4.43571e-13
-2.95618e-13
0
0
-2.80801e-12
-3.10455e-12
0
-1.4799e-13
2.81287e-12
3.40401e-12
0
7.39413e-13
0
-1.47858e-13
-1.47875e-13
1.47923e-13
-2.95975e-13
-2.96081e-13
7.39884e-13
-2.66317e-12
1.47925e-13
2.51434e-12
-2.07051e-12
0
-7.39494e-13
1.47918e-13
-2.51509e-12
-4.43912e-13
-3.69878e-12
-3.69808e-12
5.91576e-13
-2.21822e-12
-1.47879e-13
0
1.47872e-13
-2.95766e-13
-4.43747e-13
-2.07123e-12
-1.18336e-12
2.80996e-12
-1.47869e-13
1.47872e-13
3.40138e-12
1.03516e-12
3.2529e-12
-1.33069e-12
-2.95761e-13
4.43729e-13
0
-2.21816e-12
-3.401e-12
4.43686e-13
1.0355e-12
5.91693e-13
1.47877e-13
-2.66123e-12
1.92214e-12
2.95761e-13
1.47888e-13
0
1.47882e-13
1.47927e-13
-7.39868e-13
2.36749e-12
1.47904e-13
4.43554e-13
1.47847e-13
1.92226e-12
1.18312e-12
-2.2181e-12
2.36606e-12
-1.92297e-12
0
2.5153e-12
2.07054e-12
3.69612e-12
-1.47841e-13
4.43593e-13
-2.81004e-12
-8.87233e-13
-2.51359e-12
-1.33088e-12
-3.54965e-12
-2.95788e-13
2.95703e-13
-2.36523e-12
2.36546e-12
2.95743e-13
2.95827e-13
-2.51401e-12
-1.62639e-12
-2.0698e-12
1.47847e-13
-1.47842e-13
7.39119e-13
-8.8696e-13
1.47859e-13
0
0
-1.77494e-12
-1.47873e-13
8.87101e-13
3.99173e-12
1.47835e-13
2.36539e-12
2.95713e-13
3.10575e-12
2.66267e-12
-1.77563e-12
-2.2191e-12
2.66224e-12
-1.03512e-12
-1.4786e-12
-3.10499e-12
-2.36586e-12
-1.47891e-13
2.95851e-13
-2.95913e-13
1.33137e-12
-2.51457e-12
-2.66223e-12
0
-2.95768e-13
2.3661e-12
-7.39421e-13
-2.80997e-12
-1.47911e-13
2.95844e-13
0
-2.9581e-13
0
-2.51404e-12
-1.47884e-13
1.47881e-13
0
-5.91513e-13
-1.47892e-13
-1.47904e-13
-2.66216e-12
1.4789e-12
-4.43651e-13
7.39447e-13
3.40166e-12
8.87363e-13
2.66182e-12
1.18296e-12
4.43624e-13
3.25349e-12
1.47886e-13
-1.47883e-13
-5.76768e-12
-1.47909e-13
-1.77512e-12
7.39604e-13
2.95786e-13
-2.51375e-12
1.92219e-12
-1.47867e-13
-2.95764e-13
2.95763e-13
0
0
-1.18362e-12
-2.81095e-12
0
-1.47871e-13
3.54852e-12
3.10501e-12
2.07031e-12
0
2.36626e-12
-2.2188e-12
-2.95887e-13
-4.43812e-13