/*--------------------------------*- C++ -*----------------------------------*\
  =========                 |
  \\      /  F ield         | OpenFOAM: The Open Source CFD Toolbox
   \\    /   O peration     | Website:  https://openfoam.org
    \\  /    A nd           | Version:  10
     \\/     M anipulation  |
\*---------------------------------------------------------------------------*/
FoamFile
{
    format      ascii;
    class       volScalarField;
    location    "0.1";
    object      gradTx;
}
// * * * * * * * * * * * * * * * * * * * * * * * * * * * * * * * * * * * * * //

dimensions      [0 -1 0 1 0 0 0];

internalField   nonuniform List<scalar> 
47104
(
1.3959e-13
-6.19299e-15
5.86824e-13
5.50238e-13
-1.94693e-13
1.55231e-13
2.56056e-13
5.25537e-14
-2.57264e-15
-1.39584e-13
9.32208e-15
-9.24761e-14
1.3239e-13
-5.43653e-13
1.36972e-14
3.05026e-12
3.25989e-13
-2.41341e-12
-2.44658e-12
-1.94708e-12
-1.39536e-13
9.21406e-14
1.75611e-12
3.76854e-14
-2.41658e-12
2.0718e-13
6.18568e-13
2.23745e-13
6.41274e-13
2.88441e-13
-1.05008e-12
-1.62596e-12
-6.4076e-13
4.02086e-14
-1.40407e-13
1.18803e-13
-5.54172e-13
-1.32365e-13
8.10947e-13
1.57889e-13
1.4855e-13
5.42096e-14
3.23831e-14
-1.43328e-13
-1.59357e-14
-1.79689e-13
5.78873e-14
-1.49982e-13
1.7877e-13
0
0
8.56704e-13
1.64541e-13
-8.74391e-14
1.14642e-13
6.23685e-13
7.34721e-14
3.41653e-13
-4.81368e-14
-1.78254e-12
1.77535e-12
3.97698e-13
-1.91446e-12
2.93901e-13
-4.62582e-13
6.67922e-15
4.82651e-13
1.5317e-12
-1.13779e-13
-1.4778e-12
4.56183e-13
-2.05149e-13
-4.16516e-13
-2.39431e-12
5.65602e-14
2.61781e-12
-1.40107e-13
-4.60868e-14
7.04264e-13
7.35228e-13
-1.39766e-13
1.81539e-13
5.75565e-13
-1.59196e-13
-5.49235e-13
1.03367e-13
2.1231e-12
7.96473e-14
-1.9239e-13
2.07762e-12
1.39609e-13
4.66196e-13
-1.21779e-13
-3.50837e-13
-2.12987e-12
1.67031e-13
1.32882e-12
-1.68596e-12
4.54151e-13
1.64953e-12
-1.49214e-13
-2.17131e-13
-1.72387e-12
2.3783e-13
1.63135e-12
-2.09818e-14
1.01427e-13
-2.0044e-13
9.21733e-14
4.47613e-13
-1.49336e-13
-3.21321e-12
-1.37748e-12
3.31809e-12
1.61854e-12
2.61694e-12
1.74452e-12
-4.75736e-12
-1.68988e-12
1.94126e-12
1.49307e-12
2.54379e-12
-2.25575e-12
1.16772e-12
-3.50106e-13
-4.15766e-12
8.44318e-12
-4.09408e-12
0
1.493e-13
1.49207e-13
-6.72924e-13
-2.94231e-13
0
-5.02691e-12
5.14609e-12
-3.18502e-14
-3.41114e-12
-1.90659e-12
1.49201e-13
-1.49167e-13
4.861e-13
2.1768e-12
-2.34314e-12
6.73781e-15
-3.28922e-12
3.72607e-12
-6.41436e-13
-2.24348e-12
-1.93907e-12
1.79011e-12
2.05666e-12
5.59002e-13
6.53321e-13
2.83502e-12
-3.24978e-12
4.90502e-12
-4.78038e-12
-2.46787e-12
7.45818e-13
4.32774e-12
0
-2.3073e-12
-3.53079e-12
3.87697e-12
4.21874e-14
-2.57506e-13
4.64654e-12
-4.11246e-13
3.87958e-12
0
-2.61892e-13
5.40771e-12
-4.81969e-12
4.83357e-13
9.52966e-14
-1.40128e-12
2.58775e-13
7.85612e-13
1.49319e-13
1.64291e-12
1.9448e-12
-1.82042e-12
-1.76019e-12
-6.47554e-13
-1.93654e-13
-6.32113e-13
4.43046e-13
-8.96457e-13
-1.64279e-12
-1.4921e-13
1.77219e-13
-4.55836e-13
4.39411e-13
-2.48067e-12
-1.9236e-12
2.49338e-12
1.77215e-12
-2.29462e-13
-2.98422e-13
1.49189e-13
2.11075e-12
1.92258e-12
-2.32193e-12
-1.60215e-12
-6.10648e-14
-1.4955e-13
1.52192e-13
-1.43291e-13
0
1.04477e-12
-5.89429e-12
3.49509e-12
-4.52858e-12
4.75617e-12
-5.92946e-13
-1.28636e-13
5.19459e-13
1.77182e-13
-1.4924e-12
2.98208e-12
2.19518e-12
7.86938e-13
-6.90589e-13
1.73612e-13
-6.68823e-13
7.04279e-13
1.0873e-13
4.1532e-13
1.34187e-12
-1.34081e-12
4.75175e-12
-1.5325e-12
-6.33417e-09
-6.82421e-10
1.54513e-10
2.05435e-09
5.31741e-11
-4.0005e-14
-7.44867e-13
-2.98048e-13
3.61196e-13
3.80511e-13
-9.34024e-09
1.41471e-10
-3.56391e-11
-2.55663e-10
-4.57875e-11
-5.89259e-12
0
2.98074e-13
1.13052e-13
2.95399e-13
-9.60335e-09
1.51783e-10
-3.62867e-11
-2.76976e-10
-5.23099e-11
-3.94895e-14
-1.04316e-12
-8.941e-13
1.32323e-12
4.41063e-12
-8.2302e-09
7.71023e-11
-1.49009e-11
-1.40438e-10
-2.06065e-11
-4.08686e-13
0
-7.45788e-13
8.63373e-13
1.00928e-12
5.62805e-12
4.61803e-12
-5.61938e-12
-6.43019e-12
-6.08036e-12
4.23477e-12
-4.47381e-13
1.49293e-13
3.27804e-12
-2.29471e-12
-5.47331e-12
4.6653e-12
3.3294e-12
-3.14076e-12
-4.20404e-13
-4.63868e-13
1.64201e-12
-2.23776e-12
2.40559e-12
2.00323e-12
-2.7834e-12
4.50397e-13
-6.65102e-13
-4.1339e-14
3.15393e-13
1.57744e-13
0
-1.63734e-12
-3.45445e-13
-7.41215e-14
-1.54023e-12
-2.61458e-12
-2.84709e-13
4.27991e-12
1.2256e-13
-1.724e-12
-1.48823e-13
1.48615e-13
3.41757e-13
-3.5526e-12
1.45018e-12
-6.26403e-14
8.13988e-13
-2.71097e-14
2.14001e-12
-1.00517e-12
-1.48594e-12
4.42901e-13
6.18384e-12
-5.15203e-11
-3.8642e-09
5.9837e-12
9.17702e-11
3.32561e-10
8.73628e-09
5.24834e-09
1.03338e-12
-5.86758e-13
3.74627e-10
8.54891e-07
-0.169323
-0.000863501
5.41384e-05
0.00232787
0.123469
1.33468e-08
-2.64033e-12
2.9299e-13
3.71765e-10
8.77235e-07
-0.254978
-0.00295732
0.000175442
0.00837157
0.164316
6.58385e-09
-5.8595e-13
2.49067e-12
3.72935e-10
8.84748e-07
-0.256203
-0.00308323
0.000184233
0.00859728
0.164925
6.18547e-09
4.39478e-13
1.17387e-12
3.72942e-10
8.69539e-07
-0.253201
-0.00280933
0.000165541
0.008055
0.163264
7.93908e-09
1.46701e-13
-2.51077e-12
2.15222e-10
9.18714e-07
0.0218571
0.000129551
3.49066e-05
-4.84469e-05
-0.021285
-1.62457e-08
1.0336e-12
1.48658e-13
4.93963e-13
2.27811e-10
2.32245e-10
-2.02774e-12
-2.19043e-12
-7.91572e-12
-1.05637e-10
-3.65306e-12
5.94556e-13
-5.95366e-13
1.98782e-12
4.04493e-13
-1.78328e-14
1.73515e-13
-2.32521e-12
-5.1844e-14
2.59128e-12
1.87846e-13
-2.23275e-12
-7.43326e-13
-2.8567e-13
2.31902e-13
8.5052e-15
2.08956e-13
6.21489e-14
-1.83176e-12
3.73133e-13
1.77677e-12
0
3.56138e-12
2.75376e-12
-1.47542e-12
-6.56877e-12
7.39485e-12
-1.17552e-12
-1.95166e-11
-4.25935e-12
3.89752e-12
-2.22547e-12
3.23238e-12
4.78346e-13
-9.3316e-08
0.00342455
8.67989e-05
1.98296e-05
-0.000140957
0.000138558
3.15868e-08
-3.52608e-12
4.35434e-13
6.46997e-10
-0.118554
-2.46314e-06
-4.35419e-13
2.89145e-13
-2.54344e-09
-0.144584
1.26503e-05
7.22811e-13
4.33783e-13
-2.30604e-09
-0.144851
1.26398e-05
3.90327e-12
-8.71311e-13
-2.97741e-09
-0.144144
1.26657e-05
-1.45149e-13
7.34987e-13
-3.59333e-10
0.00633391
-1.394e-06
1.32248e-12
-7.42121e-13
-4.91913e-15
3.01381e-10
-1.41208e-07
1.35734e-08
-2.90315e-09
-6.79316e-08
4.8749e-08
9.07461e-12
-5.93652e-13
-1.4865e-13
5.96304e-13
1.26818e-13
-2.30235e-12
-1.13217e-13
4.34493e-12
9.99482e-15
-4.8248e-13
-1.56788e-13
-2.23002e-12
1.63577e-12
1.48446e-14
-1.51872e-12
-1.16992e-13
9.21079e-14
-5.9153e-14
7.68988e-14
-5.89645e-13
1.93294e-13
4.46039e-13
1.78249e-12
8.72721e-12
-4.45358e-12
-2.37313e-11
9.26817e-12
-2.65354e-12
-2.26595e-11
-1.51834e-12
1.77516e-13
-7.42559e-13
-7.35188e-13
4.36633e-13
-9.70388e-08
0.00423301
0.000110237
1.55195e-05
-0.000206943
0.000161686
3.24557e-08
3.52858e-12
1.45039e-13
1.38254e-09
-0.121849
-2.29606e-06
-2.17536e-12
-2.88663e-13
-2.85681e-09
-0.150894
2.08795e-05
0
7.21766e-13
-2.55345e-09
-0.15127
2.09596e-05
5.77272e-13
-1.45124e-13
-2.81439e-09
-0.149829
2.02513e-05
3.19068e-12
-2.50093e-12
-4.93347e-11
-0.000487514
-1.46617e-06
-1.76452e-12
-2.22841e-12
-2.53985e-12
3.11065e-10
-1.8052e-07
2.71074e-08
-5.93615e-09
-1.41614e-07
3.15508e-08
-1.40225e-12
2.07983e-12
1.48683e-13
7.7484e-14
2.15264e-12
-4.65914e-14
-2.38754e-12
-2.64358e-14
2.08397e-13
1.86608e-12
1.42174e-13
-1.93323e-12
-1.63671e-12
-7.38962e-13
6.50782e-13
-6.25613e-13
6.62357e-14
2.46229e-13
1.25342e-13
-8.29631e-14
1.63395e-13
-1.48767e-13
2.97351e-13
-6.60838e-12
5.65416e-12
-2.94879e-11
1.00149e-11
-2.65087e-12
-2.64389e-11
2.26644e-13
-2.93518e-13
2.22958e-12
3.53257e-12
2.15041e-12
-9.72361e-08
0.00425078
0.000108487
1.06901e-05
-0.000214688
0.000162771
3.25794e-08
-1.03004e-12
-5.80665e-13
1.60461e-09
-0.121945
-2.37819e-06
-1.01579e-12
0
-2.52967e-09
-0.151158
2.0966e-05
-1.73256e-12
4.18808e-12
-2.15703e-09
-0.151578
2.10499e-05
-4.33148e-13
1.01642e-12
-3.23334e-09
-0.150597
2.03255e-05
-8.70715e-13
-1.47242e-13
-3.59298e-11
0.0066025
-1.4721e-06
4.56226e-12
-1.4869e-12
5.13509e-12
3.0098e-10
-1.79789e-07
2.81842e-08
-5.04592e-09
-1.13636e-07
5.64531e-08
2.29774e-12
1.78428e-12
-2.67777e-12
-1.1077e-13
6.24809e-13
2.03132e-12
3.92686e-12
-2.12918e-12
-3.58158e-12
1.26477e-14
1.74868e-12
-1.48797e-13
-3.42375e-12
1.04601e-13
3.38008e-12
1.37819e-13
2.355e-12
-1.93675e-12
-1.82173e-12
1.56849e-12
5.93037e-13
5.9536e-13
2.975e-13
-2.24436e-12
2.08454e-12
-2.97772e-11
9.2484e-12
-4.61629e-12
-1.97431e-11
-5.29225e-12
6.44158e-14
1.48717e-13
-5.89215e-13
-5.53215e-12
-9.69378e-08
0.00425387
0.000108269
1.00368e-05
-0.000215616
0.000162756
3.25129e-08
7.36156e-13
4.35923e-13
-3.19951e-09
0.0192998
-2.37129e-06
2.03286e-12
4.33573e-13
-2.5491e-09
-0.150982
2.09738e-05
2.88958e-13
7.22579e-13
-2.14417e-09
-0.151601
2.10578e-05
-4.33445e-13
3.3417e-12
-3.19164e-09
-0.150653
2.03323e-05
4.35633e-13
8.83975e-13
-3.597e-11
0.00660666
-1.47291e-06
5.89007e-13
-2.23158e-12
-4.36572e-12
3.01778e-10
-1.79287e-07
2.81906e-08
-5.48131e-09
-1.21272e-07
5.49817e-08
-1.32778e-12
2.97536e-13
0
-2.35532e-12
6.46964e-14
4.33608e-12
-2.6384e-14
-1.73889e-12
-7.89785e-14
-4.3721e-14
1.05326e-14
0
1.34013e-12
-3.4371e-13
-2.05063e-12
-1.77411e-12
-2.85172e-13
1.63088e-12
-5.85202e-14
-1.18689e-13
8.55564e-13
1.48897e-13
-1.4879e-12
7.42099e-14
-5.95698e-13
-2.13703e-11
6.06578e-12
-1.01585e-12
-3.30738e-11
-2.30444e-12
9.48685e-12
-5.95106e-13
-1.91594e-12
2.45868e-12
-9.70949e-08
0.00424455
0.000107916
1.16379e-05
-0.000212022
0.000162263
3.24136e-08
-7.36617e-13
1.01821e-12
-2.5044e-09
0.0320452
-2.2543e-06
-4.36127e-13
-2.8948e-13
-2.81784e-09
-0.150881
2.09194e-05
-5.78806e-13
-1.30264e-12
-2.42828e-09
-0.151478
2.09999e-05
2.31527e-12
1.4546e-13
-3.40819e-09
-0.150548
2.02914e-05
-2.90766e-13
-8.8451e-13
-3.13249e-11
0.0066041
-1.47099e-06
-1.62076e-12
7.44138e-13
1.87037e-14
3.00798e-10
-1.76795e-07
2.71423e-08
-5.89507e-09
-1.42437e-07
3.14436e-08
6.57386e-12
-1.48823e-13
-1.48892e-13
-1.88857e-14
6.77866e-13
-1.93453e-12
-6.04801e-13
1.49351e-12
-1.35762e-13
2.35436e-13
-4.73197e-13
-2.9785e-13
-1.48928e-13
-4.41909e-14
-2.24918e-12
1.55516e-14
2.15556e-12
1.00119e-13
-4.21324e-14
2.39499e-12
-8.91477e-15
-2.38301e-12
2.52981e-12
3.34513e-12
5.9562e-13
-4.57289e-11
-2.94709e-12
-3.10343e-13
1.69054e-11
-4.53961e-12
3.44252e-12
-2.9765e-13
3.24424e-12
3.65691e-12
-9.64086e-08
0.00362078
8.42423e-05
1.10134e-05
-0.000159156
0.000150191
3.19426e-08
3.24386e-12
3.6435e-12
2.67533e-09
-0.119862
-5.18222e-06
2.47691e-12
-1.45175e-13
2.45352e-09
-0.146759
-3.71705e-06
1.4514e-13
3.33927e-12
2.7728e-09
-0.147089
-3.86222e-06
-1.45143e-13
-1.16627e-12
1.67351e-09
-0.146374
-2.62728e-06
8.74261e-13
-2.80314e-12
-4.23153e-11
0.00644165
-1.33976e-06
1.62216e-12
-1.33981e-12
-7.19382e-13
2.64034e-10
-1.17155e-07
-1.13133e-09
2.00241e-10
2.33848e-09
4.49583e-08
4.25568e-12
4.466e-13
-1.4893e-13
1.82874e-12
2.2363e-12
-1.41385e-12
-2.39846e-12
-2.84902e-12
-2.44314e-12
2.787e-12
2.5733e-12
1.48962e-13
-1.48929e-13
-1.83162e-13
2.24124e-12
-5.89021e-13
-4.08521e-13
7.2952e-13
-2.77184e-12
5.07872e-13
9.55116e-13
-4.46866e-13
1.48808e-13
-6.10581e-13
-3.86971e-12
4.06534e-12
2.25605e-13
2.94465e-13
1.9202e-14
-4.71309e-12
8.29551e-12
-3.57213e-12
-8.84792e-13
-8.14021e-12
-4.35398e-10
6.45015e-09
1.53311e-10
-2.67917e-11
-3.0033e-10
-5.67501e-08
7.41072e-11
-2.94906e-13
1.45742e-13
-6.09506e-12
-7.52711e-07
-2.27533e-09
2.9141e-13
-8.71195e-13
4.03016e-12
-7.77795e-07
-2.38754e-09
2.46746e-12
1.45216e-13
-5.97629e-12
-6.36423e-07
-2.3942e-09
1.4515e-13
2.62443e-12
-7.35773e-13
-7.7901e-07
-2.36491e-09
-3.93444e-12
0
3.04602e-12
-5.84665e-07
5.16195e-09
1.76976e-12
-1.48887e-13
4.06019e-12
-1.50792e-12
-2.70722e-11
-2.75935e-12
5.9286e-12
5.80155e-12
-2.31142e-10
-1.76571e-13
-1.48875e-13
4.46835e-13
-5.51653e-13
1.79006e-12
-6.46133e-13
-2.17065e-12
1.57749e-12
-1.76587e-14
1.55686e-14
6.40661e-14
-1.48971e-13
-1.04241e-12
-2.3816e-12
-1.64113e-12
3.30687e-13
4.00021e-13
-1.02927e-12
-5.44171e-13
1.20035e-13
8.43698e-14
0
-4.46364e-12
-2.70863e-12
2.97823e-12
-3.16235e-12
3.48713e-12
-4.27781e-12
-3.7994e-12
3.82435e-12
3.05987e-13
0
-1.47353e-13
-4.19077e-12
-4.54754e-12
-1.0416e-11
1.09487e-12
-1.01856e-11
-1.18096e-12
-1.70742e-13
6.39027e-12
-3.38892e-12
8.72529e-13
5.42216e-12
-7.20349e-12
-9.43848e-13
0
5.79035e-13
3.00052e-13
-4.7444e-12
-3.6573e-13
0
-7.23871e-13
1.21039e-12
9.91855e-14
7.54719e-12
-1.30256e-12
1.45476e-12
3.28471e-12
-4.54315e-12
-3.64231e-13
-2.32678e-12
3.09635e-12
2.80136e-12
1.43545e-13
6.58025e-13
-4.56898e-12
1.48876e-13
-4.37038e-13
1.02086e-12
-3.67664e-12
3.25701e-12
-4.32988e-12
4.56873e-12
-4.09734e-12
4.78142e-12
1.33968e-12
-1.63832e-12
-2.29369e-12
3.77578e-13
2.74493e-12
1.76592e-12
6.78502e-14
-2.63959e-12
-1.80143e-12
2.60427e-12
1.93645e-12
-2.38244e-12
1.81462e-12
2.18847e-12
-3.91897e-12
-1.13853e-13
2.44338e-13
2.84865e-13
1.78682e-12
-1.72927e-13
2.97875e-13
4.46337e-13
-5.25939e-12
4.76338e-12
1.99273e-12
-1.66345e-12
-5.26242e-12
5.15475e-12
-8.82551e-13
4.08735e-13
-3.86892e-12
1.4729e-13
3.44441e-13
-2.60682e-13
-5.79757e-13
-5.8972e-13
7.48187e-13
1.26364e-12
7.28132e-12
-2.2493e-12
-4.12403e-12
-1.45264e-13
-5.66634e-12
1.01034e-11
1.59866e-12
-2.46928e-12
-3.7581e-12
-4.51317e-12
-4.07456e-14
-5.8591e-12
0
1.44554e-13
-3.69123e-12
5.36169e-12
6.60374e-13
-1.44539e-12
-2.76073e-12
-5.01869e-12
7.26838e-12
-2.40551e-12
-3.48724e-12
1.62091e-12
-1.988e-12
7.34493e-12
-7.5257e-12
1.47352e-13
2.97695e-12
1.95944e-12
8.64528e-13
1.23183e-12
-2.46705e-15
-4.43001e-12
-1.0148e-13
5.85958e-13
3.94709e-12
-2.97677e-12
2.97845e-13
3.02649e-13
8.27088e-13
3.78181e-13
-1.33554e-12
-6.66831e-13
2.08488e-12
1.11364e-13
-2.08824e-12
8.93643e-13
-5.9558e-13
1.70599e-13
3.65457e-13
-3.23712e-14
-1.07051e-13
1.69429e-12
-1.77129e-12
-1.6888e-12
2.05341e-12
0
1.4877e-13
-2.38324e-14
5.95492e-13
4.2217e-12
-8.71081e-12
4.26141e-12
4.61882e-13
0
-1.34817e-14
-7.43998e-13
-1.62002e-12
-6.90692e-13
-2.03045e-12
1.04582e-11
8.25853e-12
-5.82713e-13
-9.46629e-12
1.92185e-12
2.00549e-14
1.47274e-13
2.90469e-12
2.50032e-12
-2.93315e-12
-1.01765e-12
-4.79246e-12
-1.01151e-12
-9.77962e-13
4.59434e-13
2.41804e-12
-2.16742e-12
-7.22565e-13
6.54879e-13
6.51132e-12
5.8731e-13
-1.30052e-12
-5.81113e-13
-1.88615e-12
-3.5087e-12
5.83505e-12
-8.71546e-13
3.38863e-12
5.66245e-12
-1.33933e-11
1.13589e-13
1.32587e-12
0
-7.84729e-15
-3.02036e-13
3.36371e-12
2.11392e-12
-5.84662e-12
3.77522e-12
-3.80697e-12
-5.89782e-13
-3.86958e-12
-1.4891e-13
2.40739e-12
2.90108e-12
-5.49773e-12
-2.70383e-12
2.62663e-12
-2.5134e-13
3.127e-13
-1.04365e-12
-1.04252e-12
5.95574e-13
7.1933e-13
-2.14125e-13
2.61702e-13
-1.27068e-15
-6.96004e-14
-6.35618e-14
-1.56349e-12
-1.85145e-12
1.48932e-13
7.43795e-13
-3.36391e-12
3.10081e-12
-7.40023e-14
-4.3602e-13
-2.59562e-13
2.4521e-13
2.94195e-13
4.94298e-12
-4.46403e-13
-4.41873e-13
-3.18127e-13
-2.43786e-12
1.62327e-11
-1.05836e-12
-9.70832e-13
1.29502e-12
6.32014e-12
-3.65767e-12
-1.3256e-12
-3.63211e-12
1.23736e-12
-5.74279e-12
2.90691e-13
-8.71606e-13
-1.87927e-12
-1.5783e-12
1.00579e-12
-1.39184e-12
5.7821e-13
1.44571e-13
1.51347e-14
3.86948e-12
3.66979e-13
-5.7823e-13
0
-7.48264e-15
-1.0369e-11
-2.40701e-12
1.16226e-12
-1.47359e-13
-1.54816e-12
4.46077e-12
-1.75648e-12
-1.47316e-13
1.48818e-13
2.74239e-13
3.32327e-12
1.3332e-12
-4.45449e-12
-2.84263e-13
-5.38516e-13
1.0866e-12
2.05482e-13
4.46489e-13
1.4891e-13
1.42527e-13
-5.43681e-14
7.47601e-14
-1.75672e-13
8.90724e-14
-5.1071e-15
1.60813e-13
-2.54461e-12
-2.38295e-12
0
2.19879e-13
-3.42015e-13
1.29343e-14
2.64947e-13
-5.26114e-14
6.64843e-14
-1.87105e-14
5.35393e-14
1.48946e-13
-1.48766e-13
3.70555e-13
-1.7259e-13
1.74378e-13
7.92963e-14
4.14117e-13
1.18038e-12
-8.82347e-13
-2.94297e-15
-4.46438e-13
1.47355e-13
-2.30944e-12
5.02221e-13
2.31767e-12
3.01257e-12
-1.11841e-11
-9.74391e-12
1.73671e-12
1.7785e-12
-4.42079e-13
4.36423e-12
7.80706e-13
4.23325e-13
5.80728e-13
-2.90917e-12
1.15853e-12
-3.9135e-12
1.68236e-12
-5.26701e-12
1.30328e-12
-1.44826e-13
4.64523e-12
-6.54295e-12
-5.49674e-12
-1.01368e-12
-8.73055e-13
2.59935e-12
-1.20138e-12
-5.82867e-13
-5.81845e-13
3.68531e-12
6.04272e-12
-3.73872e-12
-5.55762e-12
7.36866e-13
-4.46487e-13
-3.42864e-12
4.22634e-12
-2.83588e-13
1.59665e-13
-3.26367e-14
4.72679e-12
-1.64581e-13
-1.23813e-13
-1.33957e-12
-1.48925e-13
-2.42898e-14
3.54274e-13
-1.96262e-12
-2.26421e-12
2.49377e-12
1.49285e-12
-6.80365e-13
-2.02162e-12
-2.53217e-12
-2.97865e-13
1.48417e-13
2.77733e-13
-1.47819e-13
-1.50453e-13
-1.55021e-13
9.31085e-14
2.46275e-12
-3.0861e-14
-2.2346e-12
3.57147e-12
-7.32888e-13
2.97505e-12
6.07701e-13
3.0654e-13
-5.27532e-13
-1.29828e-13
7.313e-14
3.87585e-13
7.44283e-13
2.35955e-12
2.44558e-12
2.07891e-13
1.22612e-12
-7.03169e-13
1.79486e-12
1.60979e-11
5.79495e-12
0
-5.89987e-13
-2.91551e-13
-6.16727e-12
1.37426e-11
1.88036e-13
0
8.71354e-13
-1.5379e-13
-1.13669e-11
-3.68492e-13
2.90441e-13
4.35701e-13
1.22277e-12
-5.45248e-12
4.42972e-13
4.35664e-13
0
-3.91855e-12
6.43125e-12
8.07523e-13
1.45769e-13
0
-2.41344e-13
7.16383e-12
-1.97232e-12
1.47494e-13
-1.48881e-12
-8.06261e-13
-3.48637e-12
-2.18231e-13
3.83931e-12
-3.73464e-12
-5.16462e-13
5.31145e-12
-8.39491e-12
2.97767e-12
2.2344e-12
-3.73467e-14
-3.87698e-12
-1.78227e-13
1.81671e-12
-1.92863e-13
1.53018e-12
-9.79353e-14
-1.74293e-12
-2.97966e-13
0
-5.02902e-13
7.66211e-14
1.05613e-13
8.36551e-14
-3.96663e-15
-1.65089e-12
1.71134e-13
1.67116e-13
-1.48986e-12
-2.53033e-12
-1.84901e-12
2.97836e-12
-3.35607e-12
5.65916e-12
-5.57915e-12
-2.70177e-13
-8.83651e-13
5.08073e-13
8.93239e-13
4.4244e-13
-2.26264e-13
5.25379e-13
-4.94452e-13
-5.17837e-13
1.91101e-13
4.44988e-12
-3.81197e-13
-3.98526e-12
7.37381e-13
-3.20481e-12
-7.94716e-12
1.30938e-12
-2.18824e-13
2.91307e-13
1.45055e-12
-7.14271e-13
2.23426e-12
2.2112e-13
1.16037e-12
1.45061e-13
5.04477e-12
-3.57963e-12
5.16821e-12
3.77125e-12
7.28426e-13
6.60427e-13
6.39807e-12
3.8914e-12
-2.33048e-12
5.90052e-13
-2.21463e-12
3.15681e-12
1.63031e-14
-5.89946e-13
-1.48906e-12
-4.42417e-13
-7.2e-13
-4.10191e-12
4.58479e-12
-9.79354e-13
2.01714e-12
-4.95567e-12
-1.43269e-12
1.48909e-12
-1.93673e-12
-1.3555e-12
2.1801e-12
1.30188e-12
-8.21525e-14
2.6388e-13
1.77789e-13
1.22413e-13
2.1166e-13
-4.47009e-13
0
6.7842e-13
1.26067e-13
-6.32932e-13
3.96055e-13
-1.8623e-12
1.31617e-12
2.01773e-12
-1.95996e-12
1.48972e-13
-4.91127e-12
-7.33337e-13
-8.04366e-12
-2.53468e-12
5.77792e-12
-5.02696e-12
5.1912e-12
-4.74189e-13
-3.17215e-12
2.97673e-13
0
3.87485e-13
-1.88558e-12
1.73739e-12
1.35472e-13
-7.21675e-12
-6.82271e-12
7.17714e-12
-1.93446e-13
5.89419e-13
7.27006e-13
-4.07302e-12
-2.14708e-12
6.53563e-12
-1.599e-12
-2.89354e-13
9.38995e-13
-1.00364e-11
-5.0479e-12
1.01266e-12
2.749e-12
3.03339e-12
1.89409e-12
-2.27203e-12
2.31471e-12
-7.27116e-13
9.2639e-13
-4.43584e-12
-8.01495e-13
-1.59913e-12
2.06385e-12
3.90395e-12
2.73261e-12
-1.51962e-12
-4.42146e-12
-1.33986e-12
3.01853e-12
2.41573e-12
-1.96295e-13
-1.57318e-12
-4.07157e-12
4.41062e-12
-1.17055e-12
-4.0908e-12
-3.12665e-12
1.48969e-13
-1.72819e-13
-2.61613e-12
-3.39557e-13
2.84116e-12
1.54833e-13
-9.93689e-14
-8.51935e-14
6.53175e-14
1.48999e-13
0
2.18096e-12
-1.99401e-12
-2.01203e-12
1.95532e-13
2.96496e-14
1.73496e-12
-1.58317e-13
-3.95659e-14
1.48977e-13
4.46491e-13
-8.95012e-14
-8.93349e-13
1.50854e-12
-2.33459e-13
1.36775e-13
-4.0111e-13
3.19347e-12
-3.58716e-12
5.95317e-13
5.89379e-13
-2.44083e-12
1.07094e-11
5.79849e-13
5.89797e-13
2.42541e-12
-3.09629e-13
7.86046e-12
8.7554e-13
4.12493e-12
-7.26558e-13
2.16478e-13
5.08526e-12
4.28822e-12
-2.90563e-13
7.22834e-13
-4.14528e-12
9.95994e-12
7.3254e-13
5.78222e-13
-4.3373e-13
-1.31215e-12
3.27949e-12
2.20179e-12
-8.67395e-13
3.48847e-12
3.82299e-12
-3.68432e-13
5.3244e-12
-4.21402e-12
-2.94798e-13
1.62132e-12
-2.58985e-12
2.70784e-12
-2.21049e-12
2.97739e-13
8.79863e-14
5.73996e-12
-5.17755e-12
-4.74522e-12
4.53258e-12
-1.61274e-13
0
-1.74783e-13
7.44481e-13
-7.44865e-13
1.08861e-13
9.82059e-13
2.22377e-12
-1.07389e-12
-5.81507e-13
3.04415e-12
-1.76448e-12
-2.56523e-12
1.49011e-13
2.53337e-12
1.91737e-12
-6.34532e-13
9.93827e-14
2.05495e-12
9.21054e-14
-1.96014e-12
-3.39782e-14
-2.59975e-13
0
2.82886e-12
-1.54835e-12
4.17134e-12
9.02826e-14
1.97648e-13
-8.20195e-13
6.49663e-13
2.94445e-13
-3.94464e-12
3.12637e-12
2.94799e-13
-7.04289e-12
1.13106e-11
5.81139e-13
1.17977e-11
6.80744e-12
-1.14922e-11
-7.06501e-13
-5.96784e-12
8.84239e-13
-2.76225e-12
-5.25616e-12
5.17783e-12
1.74444e-12
8.72116e-13
1.44649e-13
-2.31363e-13
1.15297e-12
1.83151e-12
1.30176e-12
2.89316e-13
-5.88195e-14
-6.25913e-12
1.17433e-12
2.16995e-12
7.27101e-13
-1.1006e-12
3.60311e-12
3.86603e-12
-5.81706e-13
-1.47442e-13
-5.15846e-13
1.58277e-12
-4.10879e-12
4.71856e-12
7.44527e-13
4.96779e-12
-8.76084e-12
3.62414e-12
-5.619e-12
1.85944e-12
-3.64175e-13
3.80653e-12
3.50303e-12
4.02186e-12
-1.49017e-13
-1.62961e-12
4.87037e-13
3.30038e-12
-1.0593e-13
-1.80051e-12
-9.18423e-14
-1.84654e-12
-1.83596e-15
1.78879e-12
1.64049e-12
1.2371e-14
-2.28578e-12
-4.80976e-14
3.90501e-13
1.95369e-13
1.11339e-13
-2.07816e-13
-2.01104e-12
-2.08784e-12
-4.47069e-13
-1.23813e-15
2.97993e-13
4.15187e-13
-8.73116e-14
2.52743e-12
-3.06431e-12
4.40104e-12
-4.46676e-12
-5.9602e-13
-2.21442e-12
2.31021e-12
1.19756e-12
-8.71561e-12
-2.35867e-12
-1.36758e-12
-8.23263e-12
-1.88781e-13
1.25748e-12
1.03314e-12
-1.4574e-13
3.6894e-14
-2.27549e-12
-5.08359e-13
0
-2.031e-12
-4.92139e-12
2.62926e-13
1.6097e-12
2.61109e-12
0
4.46804e-12
3.33129e-13
-1.90565e-12
-2.9018e-13
3.49823e-12
3.58969e-12
8.74727e-13
7.29436e-13
-3.0617e-12
-1.47649e-13
-4.93896e-12
1.17942e-11
0
2.06761e-12
-1.19222e-12
-2.63566e-12
-3.92589e-12
3.57992e-12
-2.24237e-12
6.69936e-12
-4.26055e-12
2.92614e-13
4.28896e-13
5.66551e-12
0
-1.56744e-12
-1.81614e-13
1.77188e-12
-1.49298e-13
8.56969e-14
4.72083e-13
-8.53263e-14
-1.68321e-13
4.47521e-13
0
2.20694e-13
7.06247e-14
-1.88491e-13
6.67656e-14
4.35971e-14
-9.6401e-14
-5.92893e-14
-2.56888e-12
-2.68664e-12
1.34325e-12
-5.27339e-13
5.96371e-13
2.56545e-13
7.04381e-13
-2.96224e-13
-9.70888e-13
6.68494e-13
-4.50346e-12
-1.49236e-12
4.44584e-13
-7.45444e-14
-9.23796e-12
4.05753e-12
2.44141e-13
2.08754e-12
-1.12893e-12
-9.70577e-12
-7.94743e-12
-4.44509e-13
3.08305e-12
-2.73141e-12
5.10442e-12
-2.75672e-12
0
-8.78256e-13
2.22863e-12
-3.21169e-12
2.19141e-12
-1.17087e-12
7.31905e-13
6.70592e-13
5.13431e-12
2.12145e-12
-5.85499e-13
8.80952e-13
4.51131e-12
-5.67227e-12
2.83851e-12
-5.87294e-13
-8.89236e-13
-4.42604e-13
8.03532e-12
-5.25677e-12
5.92914e-13
3.73106e-12
-6.9327e-13
-9.23378e-13
4.38733e-12
1.10562e-14
2.94351e-13
1.74575e-13
-8.76535e-13
1.04932e-12
-7.46524e-13
-1.79087e-12
-1.59903e-12
2.10199e-12
2.38513e-13
-2.26604e-12
-4.23844e-14
2.83918e-13
2.32106e-12
-2.61859e-13
-2.38868e-12
-2.98453e-13
1.90508e-12
2.22223e-13
-1.40656e-12
-3.14251e-15
-2.72078e-12
-1.6264e-13
2.35342e-12
3.92728e-13
0
1.49299e-13
7.02837e-13
-5.97851e-13
1.13374e-13
-4.92794e-13
1.29259e-13
-2.17544e-13
4.54981e-13
2.50753e-12
-1.04494e-12
4.46468e-13
-1.17275e-12
-5.44387e-12
5.7271e-13
-5.32977e-13
-3.99851e-13
-6.84017e-13
-1.37173e-12
1.14097e-12
2.52954e-12
1.92706e-12
7.06144e-12
-1.44242e-11
2.26577e-12
1.48204e-13
0
4.32496e-13
-1.04784e-12
7.41247e-13
-1.48065e-12
4.14672e-12
2.23258e-12
-1.49836e-12
-9.43119e-13
3.25759e-12
1.48246e-12
-9.85179e-13
2.54343e-12
8.79107e-13
7.41116e-13
-5.95307e-13
3.24968e-12
2.90319e-13
-3.71124e-13
-8.92995e-13
2.98561e-12
3.41274e-12
-2.16638e-13
-4.7596e-12
2.70553e-12
-1.77446e-13
-3.02645e-12
3.76059e-12
2.50237e-14
-2.68785e-12
0
-1.9131e-12
3.13856e-14
1.8576e-12
1.45921e-13
3.34577e-14
1.47244e-13
5.37528e-13
1.27568e-14
-7.46162e-13
-1.48886e-12
-9.53027e-13
3.43233e-12
2.50296e-12
3.03371e-14
5.41636e-13
1.9514e-12
-2.95934e-13
-2.28382e-12
1.48867e-13
-1.48876e-12
6.36815e-12
-8.3215e-12
8.00139e-12
-5.16055e-12
3.40831e-12
-3.35509e-12
6.43472e-13
-1.80084e-14
-3.12571e-12
-1.48607e-13
-2.62375e-13
0
-2.30796e-12
3.55201e-12
2.17758e-12
2.67736e-12
-7.7186e-12
-5.32702e-12
2.97149e-12
-1.48355e-13
-3.36167e-12
1.09581e-12
5.31253e-12
-9.39593e-12
5.48294e-12
-3.69006e-13
1.14942e-12
3.70202e-13
4.4498e-13
-5.93236e-13
-7.17921e-14
1.191e-11
1.55514e-12
-4.1457e-14
3.7653e-12
-9.11147e-13
-3.98379e-12
4.60632e-12
3.7071e-12
-1.33478e-12
-3.72415e-12
5.79338e-12
-1.03429e-12
2.90125e-13
-8.04206e-13
9.10161e-13
-7.45738e-12
-2.30262e-12
0
-4.45072e-13
-2.87842e-13
-2.56386e-12
-8.8522e-13
-2.52099e-13
4.45862e-12
-3.89312e-12
4.67792e-12
-4.81449e-12
8.90034e-13
-2.97194e-12
-1.68377e-12
-5.0997e-13
-1.70753e-12
8.54811e-12
8.60558e-13
-2.35161e-12
2.16982e-12
8.14241e-13
2.08036e-12
0
1.94024e-13
-4.45756e-12
4.87238e-12
-1.61378e-12
1.37469e-12
-4.77194e-12
5.13057e-12
1.04055e-13
-7.44415e-13
2.97691e-13
2.5491e-13
-3.61077e-14
1.87958e-12
-6.25162e-13
2.89597e-14
3.08019e-13
-1.42397e-12
-3.60359e-13
0
-1.48471e-13
-1.67843e-12
-2.58863e-13
1.65057e-13
-2.29779e-12
1.53546e-12
4.56379e-12
1.77876e-12
-2.18827e-13
4.45375e-13
1.63211e-12
-2.89806e-12
-2.60407e-12
2.72893e-12
6.91025e-13
-3.09867e-12
-1.73321e-12
3.00732e-12
-2.18419e-12
1.03849e-12
1.4817e-13
9.23228e-13
-7.7239e-13
-4.40529e-12
4.25404e-12
-3.23601e-12
3.6202e-12
4.50921e-13
1.10769e-12
-1.48147e-13
0
1.54904e-12
1.03839e-13
-3.02144e-12
3.24952e-12
3.54809e-12
-4.08299e-12
-1.89982e-13
-1.54875e-12
-2.07193e-12
-1.4798e-13
-2.95151e-13
-5.54454e-12
2.11775e-12
5.8393e-14
-1.08416e-12
1.41821e-13
-4.99716e-12
1.91809e-12
-2.95927e-13
2.51568e-12
3.72643e-12
-1.26199e-12
2.2991e-12
-2.28618e-12
-1.34409e-12
-7.67786e-14
5.03776e-12
-1.14344e-12
-2.36746e-12
2.3683e-12
-1.77819e-12
-3.03801e-12
-5.52834e-13
7.84962e-12
-1.05662e-12
-8.29297e-12
4.98864e-12
1.69895e-12
-1.48007e-13
-3.55761e-12
-3.03351e-12
-3.82291e-12
3.75469e-12
-4.60941e-13
-3.66202e-12
2.05456e-12
-3.25378e-13
-2.67024e-12
1.48235e-13
1.48374e-13
3.49914e-14
4.27349e-12
-1.10632e-13
-2.27354e-12
-8.14272e-13
-1.535e-13
-2.39223e-12
2.60839e-12
3.11609e-12
2.22668e-12
7.06337e-13
3.52432e-14
3.73834e-12
-4.27949e-14
-1.988e-12
-1.03593e-12
-2.52316e-12
2.71468e-12
3.86005e-12
-7.41011e-13
-1.16948e-12
-1.819e-12
3.00944e-14
1.60141e-12
-2.23355e-14
9.77254e-14
4.47711e-13
7.24754e-13
-1.48196e-13
-1.4812e-13
1.14651e-13
-1.559e-14
8.86554e-14
4.78764e-14
-4.18829e-14
-3.62122e-14
-5.78832e-14
-3.46819e-14
-1.48112e-13
-1.62807e-12
-1.76772e-12
2.78212e-13
-2.20273e-13
2.40211e-12
1.12984e-13
-4.31574e-12
1.71396e-13
1.76393e-12
0
3.69808e-12
1.87799e-12
-3.60993e-12
-2.59788e-12
1.58422e-12
2.61453e-12
1.05176e-13
2.59159e-13
-9.44292e-14
-2.95839e-13
-2.66214e-12
-7.47355e-14
2.90955e-12
4.91814e-13
-2.3307e-13
-6.49187e-13
-3.68067e-13
-2.33992e-12
5.44107e-13
2.07061e-12
4.4369e-13
-2.11336e-12
-6.28858e-13
2.52932e-12
-3.63609e-14
-1.54642e-12
-7.22819e-15
1.51008e-12
-8.68004e-14
0
-1.47925e-13
-3.06629e-12
-1.89314e-14
2.35099e-12
-1.02135e-14
2.09561e-12
1.55531e-13
-1.72226e-12
-2.27689e-13
0
-1.62815e-12
-2.09891e-12
1.07602e-13
6.31474e-14
-4.36231e-14
-2.65164e-12
1.36517e-14
2.63086e-12
2.10137e-13
1.48019e-13
0
2.92628e-14
2.26003e-12
-2.15868e-13
-2.37916e-12
2.93508e-12
3.8851e-13
-2.8788e-12
1.9935e-13
1.48122e-13
0
-4.53928e-13
-2.02171e-14
3.32292e-13
-3.92087e-14
6.66855e-13
4.92232e-14
-5.48199e-13
1.89132e-14
0
1.48052e-13
1.79381e-12
1.75447e-13
-1.68862e-12
2.04837e-13
-8.5193e-14
-2.04497e-12
-5.34185e-13
1.67272e-12
1.48051e-13
0
-6.31023e-13
1.53025e-12
4.16064e-13
-1.32035e-12
1.60368e-12
-4.19035e-14
-1.88972e-12
-4.03452e-14
1.48001e-13
1.62734e-12
1.83598e-12
1.47607e-13
2.20805e-13
-3.02324e-13
-1.32416e-13
-1.48654e-12
-1.73906e-12
1.74132e-12
1.62734e-12
1.62683e-12
1.93007e-12
-2.28369e-12
-1.48499e-12
6.11053e-13
2.27238e-13
-9.10579e-13
1.45697e-12
2.6493e-12
1.47898e-13
-2.66176e-12
-2.60647e-12
1.76237e-12
4.32068e-12
3.38622e-12
-2.9822e-12
-3.83823e-12
6.03297e-13
1.90971e-12
7.3943e-13
1.47875e-13
-2.37446e-14
-3.6369e-14
1.68116e-13
5.88457e-13
7.22948e-17
5.114e-13
-2.85263e-13
-8.70836e-13
-1.47888e-13
-2.36628e-12
-1.81623e-12
2.33663e-12
1.74045e-12
-2.5164e-12
-2.4258e-12
2.80221e-12
3.78345e-13
-1.36138e-13
1.92276e-12
1.47939e-13
1.11116e-13
-1.45387e-14
4.25037e-13
-1.26926e-13
-6.37056e-13
-1.26213e-13
1.53061e-13
1.90795e-12
1.92333e-12
-2.51596e-12
-2.33622e-12
2.34081e-12
4.63111e-12
6.61298e-13
-2.56125e-12
-6.38023e-13
1.88565e-13
-5.2347e-14
0
1.48043e-13
-8.28235e-13
-2.95295e-13
1.09428e-12
-2.02016e-12
-3.52376e-13
-4.37285e-13
3.38661e-12
2.12909e-12
-2.66491e-12
-1.77564e-12
-1.84537e-12
5.17132e-13
-4.35978e-13
-4.70612e-13
5.68355e-13
-3.45677e-13
-2.2272e-13
3.11436e-13
-1.47972e-13
0
2.73805e-12
2.97807e-12
-4.86803e-13
-2.76542e-12
2.08538e-13
2.06907e-12
2.04403e-12
-1.12401e-13
-1.77535e-12
0
1.88606e-12
3.67397e-13
-1.6523e-12
-1.22405e-13
1.74918e-12
4.08995e-12
2.88793e-16
-2.32789e-12
-1.47914e-13
8.87305e-13
1.17557e-12
1.44022e-13
-2.46714e-12
-2.75266e-12
2.48451e-12
2.84725e-12
-3.86262e-14
4.57292e-13
5.9157e-13
2.36596e-12
1.89188e-12
-3.86245e-13
-1.73306e-12
1.55013e-13
2.11276e-12
-2.05548e-12
1.71244e-12
3.81528e-12
2.9577e-13
2.36595e-12
1.24569e-13
-2.34804e-12
2.51322e-14
1.06641e-13
-1.12642e-13
-2.33262e-13
1.80335e-13
1.74452e-12
1.62674e-12
0
1.572e-12
-1.57513e-13
-2.34749e-12
1.51365e-13
-8.4705e-14
-3.7983e-14
2.79318e-12
-2.59281e-13
-2.07054e-12
-1.47907e-13
2.04518e-13
-9.37749e-14
-2.45032e-12
-8.40277e-13
2.2933e-12
3.70341e-13
-4.1586e-13
5.93057e-13
2.95836e-13
-1.47939e-13
-1.80239e-13
-5.65008e-14
2.81701e-13
-2.42233e-14
-8.4291e-14
1.12816e-15
-1.95697e-12
-2.9463e-13
1.92332e-12
2.95928e-13
-5.50371e-14
-3.86369e-13
-7.23966e-14
1.59585e-13
1.50189e-12
-6.96099e-15
-1.46918e-12
2.14659e-13
0
-8.13807e-13
-1.82662e-12
-6.3015e-13
1.00919e-12
-2.94438e-13
-9.08047e-13
2.11293e-13
-6.16031e-14
-8.47421e-14
-3.6957e-13
-7.38528e-14
-1.81912e-14
-3.02937e-13
1.98698e-12
-1.70068e-12
-2.34116e-12
1.61106e-12
4.64468e-13
2.36566e-13
2.2176e-13
-5.17546e-13
-9.48551e-14
-9.77888e-13
-1.85215e-14
-7.46623e-13
-1.86597e-12
2.04209e-12
2.03842e-12